/*--------------------------------*- C++ -*----------------------------------*\
| =========                 |                                                 |
| \\      /  F ield         | OpenFOAM: The Open Source CFD Toolbox           |
|  \\    /   O peration     | Version:  2.1.0                                 |
|   \\  /    A nd           | Web:      www.OpenFOAM.org                      |
|    \\/     M anipulation  |                                                 |
\*---------------------------------------------------------------------------*/
FoamFile
{
    version     2.0;
    format      ascii;
    class       volScalarField;
    location    "0.49";
    object      nut;
}
// * * * * * * * * * * * * * * * * * * * * * * * * * * * * * * * * * * * * * //

dimensions      [0 2 -1 0 0 0 0];

internalField   nonuniform List<scalar> 
6400
(
7.08485e-06
7.10369e-06
7.11613e-06
7.13212e-06
7.14649e-06
7.16484e-06
7.17992e-06
7.19928e-06
7.21509e-06
7.23525e-06
7.25183e-06
7.27245e-06
7.28998e-06
7.31088e-06
7.32941e-06
7.35059e-06
7.37013e-06
7.39165e-06
7.41221e-06
7.43418e-06
7.45577e-06
7.47836e-06
7.50103e-06
7.52445e-06
7.5483e-06
7.57273e-06
7.59783e-06
7.62339e-06
7.64979e-06
7.67661e-06
7.70437e-06
7.73255e-06
7.76173e-06
7.79137e-06
7.82206e-06
7.85329e-06
7.88559e-06
7.9185e-06
7.95251e-06
7.98713e-06
8.02275e-06
8.05887e-06
8.0959e-06
8.13334e-06
8.17151e-06
8.20999e-06
8.24897e-06
8.28813e-06
8.32757e-06
8.36708e-06
8.40667e-06
8.44619e-06
8.48545e-06
8.52376e-06
8.56026e-06
8.59456e-06
8.62533e-06
8.65857e-06
8.689e-06
8.72142e-06
8.75161e-06
8.78354e-06
8.81432e-06
8.84631e-06
8.87729e-06
8.90918e-06
8.94021e-06
8.97185e-06
9.00188e-06
9.03095e-06
9.05901e-06
9.08506e-06
9.10979e-06
9.13225e-06
9.15322e-06
9.17246e-06
9.19102e-06
9.20969e-06
9.23021e-06
9.25476e-06
9.28592e-06
9.32649e-06
9.37734e-06
9.43295e-06
9.47949e-06
9.5426e-06
9.60868e-06
9.66945e-06
9.7027e-06
9.66183e-06
9.46031e-06
8.92745e-06
7.8255e-06
5.96459e-06
3.44612e-06
2.32042e-06
2.40704e-06
3.78176e-06
3.87736e-06
4.1831e-06
7.54272e-05
7.58966e-05
7.59902e-05
7.62961e-05
7.64017e-05
7.6658e-05
7.6784e-05
7.70071e-05
7.71501e-05
7.73497e-05
7.75039e-05
7.76861e-05
7.78455e-05
7.80141e-05
7.81739e-05
7.83311e-05
7.84873e-05
7.86341e-05
7.87835e-05
7.89197e-05
7.90596e-05
7.91848e-05
7.93138e-05
7.94284e-05
7.95469e-05
7.96526e-05
7.97618e-05
7.98588e-05
7.99578e-05
8.00451e-05
8.01327e-05
8.0209e-05
8.02835e-05
8.03468e-05
8.04061e-05
8.04537e-05
8.04948e-05
8.05236e-05
8.05473e-05
8.05598e-05
8.05661e-05
8.05578e-05
8.05381e-05
8.05025e-05
8.04508e-05
8.03801e-05
8.02882e-05
8.01725e-05
8.003e-05
7.98585e-05
7.96547e-05
7.94176e-05
7.91502e-05
7.88569e-05
7.8521e-05
7.81467e-05
7.74573e-05
7.67298e-05
7.59426e-05
7.51252e-05
7.42532e-05
7.33458e-05
7.23912e-05
7.14045e-05
7.03679e-05
6.92933e-05
6.81679e-05
6.70058e-05
6.5793e-05
6.45183e-05
6.31901e-05
6.17968e-05
6.034e-05
5.88134e-05
5.72162e-05
5.55458e-05
5.38017e-05
5.19852e-05
5.00975e-05
4.81436e-05
4.61281e-05
4.40602e-05
4.19495e-05
3.98022e-05
3.76029e-05
3.53127e-05
3.29419e-05
3.04657e-05
2.78814e-05
2.51813e-05
2.23856e-05
1.95284e-05
1.66932e-05
1.40221e-05
1.1508e-05
9.2365e-06
7.49673e-06
6.29083e-06
5.68024e-06
6.86383e-06
0.00011559
0.000115866
0.000115975
0.000116098
0.000116193
0.000116274
0.00011636
0.000116412
0.000116485
0.000116512
0.000116569
0.000116572
0.000116608
0.000116588
0.000116599
0.000116554
0.000116534
0.000116462
0.000116411
0.00011631
0.000116223
0.000116089
0.000115961
0.000115788
0.000115618
0.00011541
0.000115205
0.000114968
0.000114729
0.000114459
0.000114184
0.000113881
0.000113568
0.000113228
0.000112875
0.000112497
0.000112104
0.000111684
0.000111238
0.00011076
0.000110257
0.000109728
0.000109168
0.000108576
0.000107949
0.000107286
0.000106581
0.000105833
0.000105036
0.000104185
0.000103273
0.000102187
0.000100669
9.9126e-05
9.75265e-05
9.59026e-05
9.42403e-05
9.25537e-05
9.08274e-05
8.90725e-05
8.7295e-05
8.55067e-05
8.36562e-05
8.17937e-05
7.98828e-05
7.7954e-05
7.59848e-05
7.39952e-05
7.1971e-05
6.99252e-05
6.78469e-05
6.57435e-05
6.36071e-05
6.14414e-05
5.92403e-05
5.70062e-05
5.47346e-05
5.24287e-05
5.00864e-05
4.77131e-05
4.53105e-05
4.28875e-05
4.04497e-05
3.8009e-05
3.55775e-05
3.31864e-05
3.08357e-05
2.85502e-05
2.63266e-05
2.41784e-05
2.20753e-05
2.00393e-05
1.80408e-05
1.59954e-05
1.39483e-05
1.19393e-05
1.01376e-05
8.6263e-06
8.12564e-06
1.13133e-05
0.000137822
0.00013755
0.000137447
0.000137182
0.000137078
0.000136785
0.000136655
0.000136342
0.000136175
0.000135842
0.000135634
0.000135281
0.00013503
0.000134654
0.000134358
0.000133955
0.000133613
0.000133178
0.000132787
0.000132315
0.000131872
0.000131358
0.000130859
0.000130294
0.000129726
0.000128813
0.000127769
0.000126685
0.000125586
0.000124453
0.000123304
0.000122122
0.000120922
0.00011969
0.000118437
0.000117153
0.000115846
0.000114507
0.000113146
0.000111753
0.00011033
0.000108883
0.000107401
0.000105896
0.000104356
0.000102792
0.000101194
9.95716e-05
9.7917e-05
9.62299e-05
9.45172e-05
9.27986e-05
9.1047e-05
8.9281e-05
8.74884e-05
8.56843e-05
8.38574e-05
8.20153e-05
8.0146e-05
7.82568e-05
7.63394e-05
7.44018e-05
7.24404e-05
7.04629e-05
6.84627e-05
6.64503e-05
6.44193e-05
6.23811e-05
6.03316e-05
5.82824e-05
5.62313e-05
5.41898e-05
5.21581e-05
5.01466e-05
4.81565e-05
4.61975e-05
4.427e-05
4.2382e-05
4.05324e-05
3.87261e-05
3.69594e-05
3.52339e-05
3.35384e-05
3.18732e-05
3.02464e-05
2.86248e-05
2.70155e-05
2.54095e-05
2.38011e-05
2.21823e-05
2.05492e-05
1.88976e-05
1.72174e-05
1.54869e-05
1.37169e-05
1.1988e-05
1.05126e-05
9.77683e-06
1.19119e-05
1.20611e-05
0.000140674
0.00014079
0.000140525
0.000140373
0.000139602
0.000139
0.000138083
0.000137288
0.000136322
0.000135422
0.000134427
0.000133456
0.000132432
0.000131404
0.000130347
0.000129269
0.000128174
0.000127048
0.000125911
0.000124738
0.000123555
0.000122334
0.000121104
0.000119838
0.000118553
0.000117248
0.000115928
0.00011458
0.000113219
0.000111832
0.000110432
0.000109007
0.000107568
0.000106106
0.000104629
0.00010313
0.000101616
0.000100071
9.85178e-05
9.69658e-05
9.53658e-05
9.37727e-05
9.21447e-05
9.05159e-05
8.88606e-05
8.72014e-05
8.5522e-05
8.38382e-05
8.21398e-05
8.0439e-05
7.873e-05
7.70202e-05
7.53054e-05
7.35901e-05
7.18681e-05
7.01471e-05
6.84272e-05
6.67131e-05
6.50037e-05
6.33039e-05
6.16129e-05
5.99363e-05
5.82735e-05
5.66297e-05
5.50036e-05
5.34003e-05
5.18178e-05
5.02605e-05
4.87255e-05
4.72161e-05
4.57244e-05
4.42582e-05
4.28215e-05
4.13923e-05
3.99888e-05
3.85947e-05
3.72171e-05
3.58433e-05
3.44773e-05
3.31079e-05
3.17367e-05
3.03572e-05
2.89702e-05
2.75755e-05
2.61756e-05
2.47695e-05
2.3371e-05
2.19726e-05
2.05938e-05
1.92335e-05
1.79092e-05
1.66208e-05
1.53887e-05
1.41968e-05
1.31042e-05
1.22704e-05
1.20795e-05
1.37499e-05
1.37878e-05
1.41388e-05
0.000127771
0.00012715
0.000126736
0.000126193
0.00012526
0.00012435
0.000123253
0.000122187
0.00012103
0.000119886
0.000118699
0.000117508
0.0001163
0.000115073
0.000113844
0.000112589
0.000111341
0.000110063
0.000108795
0.000107498
0.000106208
0.000104894
0.000103587
0.00010228
0.000100945
9.96164e-05
9.82677e-05
9.69081e-05
9.55417e-05
9.41626e-05
9.27775e-05
9.13791e-05
8.99757e-05
8.85595e-05
8.71396e-05
8.57085e-05
8.4275e-05
8.28328e-05
8.13917e-05
7.99432e-05
7.84957e-05
7.70483e-05
7.56015e-05
7.41595e-05
7.27199e-05
7.12886e-05
6.98623e-05
6.84467e-05
6.70386e-05
6.56431e-05
6.42567e-05
6.28828e-05
6.15189e-05
6.0169e-05
5.88303e-05
5.75054e-05
5.61924e-05
5.48987e-05
5.36206e-05
5.2352e-05
5.1101e-05
4.98593e-05
4.86317e-05
4.74124e-05
4.6204e-05
4.50029e-05
4.38101e-05
4.26232e-05
4.14429e-05
4.02679e-05
3.90985e-05
3.79361e-05
3.67818e-05
3.56343e-05
3.44963e-05
3.33639e-05
3.2244e-05
3.11324e-05
3.004e-05
2.89598e-05
2.78999e-05
2.68563e-05
2.58363e-05
2.48362e-05
2.38622e-05
2.29114e-05
2.19822e-05
2.10784e-05
2.02111e-05
1.93819e-05
1.86057e-05
1.78909e-05
1.72649e-05
1.67625e-05
1.65154e-05
1.66378e-05
1.60619e-05
1.5818e-05
1.57932e-05
1.32109e-05
0.000112186
0.000111008
0.000110456
0.00010958
0.000108638
0.000107544
0.000106456
0.000105278
0.000104134
0.000102925
0.000101758
0.000100536
9.9358e-05
9.81306e-05
9.69448e-05
9.5716e-05
9.45269e-05
9.33003e-05
9.21116e-05
9.0891e-05
8.97066e-05
8.84966e-05
8.73239e-05
8.61218e-05
8.49481e-05
8.37607e-05
8.25936e-05
8.14179e-05
8.02615e-05
7.90992e-05
7.79536e-05
7.68041e-05
7.56699e-05
7.45332e-05
7.34105e-05
7.22866e-05
7.11753e-05
7.00639e-05
6.89636e-05
6.78598e-05
6.67692e-05
6.56843e-05
6.46043e-05
6.35301e-05
6.2462e-05
6.13995e-05
6.03426e-05
5.92912e-05
5.82448e-05
5.72045e-05
5.61687e-05
5.51394e-05
5.41149e-05
5.30993e-05
5.20922e-05
5.10972e-05
5.01036e-05
4.91228e-05
4.81468e-05
4.71821e-05
4.62261e-05
4.52834e-05
4.43537e-05
4.34393e-05
4.254e-05
4.16562e-05
4.07974e-05
3.99569e-05
3.9142e-05
3.83482e-05
3.75815e-05
3.68373e-05
3.61167e-05
3.54184e-05
3.4743e-05
3.40884e-05
3.34541e-05
3.28354e-05
3.22347e-05
3.12931e-05
3.03377e-05
2.93902e-05
2.84609e-05
2.75405e-05
2.66394e-05
2.57486e-05
2.48789e-05
2.40222e-05
2.31914e-05
2.23809e-05
2.16064e-05
2.0866e-05
2.0175e-05
1.95427e-05
1.90016e-05
1.85973e-05
1.83371e-05
1.82333e-05
1.89294e-05
1.49388e-05
0.000100951
9.92011e-05
9.8635e-05
9.75462e-05
9.66889e-05
9.55141e-05
9.45527e-05
9.33776e-05
9.23851e-05
9.12381e-05
9.02467e-05
8.9136e-05
8.81557e-05
8.70798e-05
8.61128e-05
8.50688e-05
8.41165e-05
8.31002e-05
8.21609e-05
8.11669e-05
8.02371e-05
7.92559e-05
7.82881e-05
7.69626e-05
7.57045e-05
7.44043e-05
7.31877e-05
7.19272e-05
7.07483e-05
6.95349e-05
6.84023e-05
6.72437e-05
6.61649e-05
6.50674e-05
6.40484e-05
6.30148e-05
6.20577e-05
6.10912e-05
6.01989e-05
5.93013e-05
5.84739e-05
5.76444e-05
5.68787e-05
5.61107e-05
5.54032e-05
5.46937e-05
5.404e-05
5.33842e-05
5.27793e-05
5.21717e-05
5.16088e-05
5.10439e-05
5.05148e-05
4.9982e-05
4.94766e-05
4.89704e-05
4.84833e-05
4.7994e-05
4.75144e-05
4.70298e-05
4.65487e-05
4.60602e-05
4.557e-05
4.50646e-05
4.45553e-05
4.40528e-05
4.35314e-05
4.30105e-05
4.24842e-05
4.19581e-05
4.1426e-05
4.08942e-05
4.03567e-05
3.9819e-05
3.92756e-05
3.87315e-05
3.81816e-05
3.76302e-05
3.70734e-05
3.65116e-05
3.59422e-05
3.53593e-05
3.47639e-05
3.41503e-05
3.35184e-05
3.28627e-05
3.21829e-05
3.14742e-05
3.07384e-05
2.99757e-05
2.91939e-05
2.84027e-05
2.76221e-05
2.68772e-05
2.62615e-05
2.58036e-05
2.54271e-05
2.55997e-05
2.61339e-05
2.05146e-05
8.41896e-05
8.20849e-05
8.12296e-05
7.9637e-05
7.87426e-05
7.72588e-05
7.6333e-05
7.49516e-05
7.40078e-05
7.26882e-05
7.1777e-05
7.05182e-05
6.96347e-05
6.84381e-05
6.75854e-05
6.6453e-05
6.56358e-05
6.45702e-05
6.37938e-05
6.27972e-05
6.20664e-05
6.11409e-05
6.04596e-05
5.96096e-05
5.89878e-05
5.82213e-05
5.76626e-05
5.69761e-05
5.64809e-05
5.58715e-05
5.5438e-05
5.49015e-05
5.45252e-05
5.40576e-05
5.37325e-05
5.333e-05
5.30519e-05
5.27088e-05
5.24703e-05
5.21802e-05
5.19755e-05
5.17286e-05
5.15521e-05
5.13402e-05
5.11863e-05
5.10019e-05
5.08655e-05
5.0695e-05
5.05658e-05
5.04347e-05
5.03104e-05
5.01905e-05
5.00459e-05
4.99468e-05
4.98237e-05
4.9733e-05
4.96252e-05
4.95433e-05
4.94528e-05
4.93845e-05
4.93118e-05
4.92586e-05
4.9204e-05
4.91663e-05
4.91296e-05
4.91072e-05
4.90896e-05
4.90855e-05
4.90856e-05
4.90983e-05
4.91158e-05
4.9145e-05
4.91788e-05
4.92233e-05
4.92721e-05
4.93297e-05
4.93901e-05
4.94569e-05
4.95243e-05
4.95952e-05
4.96635e-05
4.97295e-05
4.97859e-05
4.98313e-05
4.98574e-05
4.98602e-05
4.98307e-05
4.97618e-05
4.96437e-05
4.94709e-05
4.92367e-05
4.89413e-05
4.85878e-05
4.81889e-05
4.77726e-05
4.74228e-05
4.72914e-05
4.74238e-05
4.79645e-05
3.97694e-05
7.42737e-05
7.24062e-05
7.16581e-05
7.02541e-05
6.9548e-05
6.82256e-05
6.75577e-05
6.63234e-05
6.56927e-05
6.45503e-05
6.39611e-05
6.29082e-05
6.23636e-05
6.1399e-05
6.09008e-05
6.00227e-05
5.95722e-05
5.8778e-05
5.83755e-05
5.76622e-05
5.73073e-05
5.66712e-05
5.63626e-05
5.57997e-05
5.5535e-05
5.50402e-05
5.48158e-05
5.43833e-05
5.41955e-05
5.38213e-05
5.36633e-05
5.33516e-05
5.32006e-05
5.29494e-05
5.2824e-05
5.2631e-05
5.25056e-05
5.23696e-05
5.22421e-05
5.21429e-05
5.20507e-05
5.1974e-05
5.19091e-05
5.18565e-05
5.18182e-05
5.17885e-05
5.17755e-05
5.17689e-05
5.17811e-05
5.17982e-05
5.18333e-05
5.18739e-05
5.19323e-05
5.20008e-05
5.2084e-05
5.21801e-05
5.22892e-05
5.2413e-05
5.25487e-05
5.26997e-05
5.28627e-05
5.30415e-05
5.32327e-05
5.34409e-05
5.3662e-05
5.39003e-05
5.41522e-05
5.44218e-05
5.47057e-05
5.50077e-05
5.53251e-05
5.56611e-05
5.6014e-05
5.63866e-05
5.67775e-05
5.71898e-05
5.76227e-05
5.80786e-05
5.85572e-05
5.90609e-05
5.95895e-05
6.0146e-05
6.07315e-05
6.13489e-05
6.19999e-05
6.2688e-05
6.34158e-05
6.41877e-05
6.50091e-05
6.5885e-05
6.68221e-05
6.78275e-05
6.89089e-05
7.00742e-05
7.13297e-05
7.26692e-05
7.40865e-05
7.55481e-05
7.62734e-05
6.62001e-05
7.879e-05
7.68259e-05
7.60368e-05
7.45497e-05
7.37889e-05
7.23871e-05
7.16548e-05
7.03434e-05
6.96424e-05
6.84246e-05
6.77576e-05
6.66364e-05
6.60063e-05
6.49827e-05
6.43956e-05
6.3464e-05
6.29253e-05
6.20809e-05
6.15931e-05
6.08318e-05
6.03955e-05
5.97129e-05
5.93272e-05
5.87186e-05
5.83811e-05
5.78412e-05
5.75487e-05
5.70723e-05
5.68205e-05
5.64016e-05
5.61862e-05
5.58189e-05
5.56342e-05
5.53142e-05
5.51545e-05
5.48762e-05
5.47355e-05
5.44869e-05
5.43583e-05
5.41795e-05
5.40272e-05
5.39039e-05
5.37556e-05
5.36412e-05
5.35329e-05
5.34385e-05
5.33544e-05
5.32804e-05
5.32196e-05
5.31667e-05
5.31291e-05
5.30982e-05
5.30844e-05
5.30768e-05
5.3085e-05
5.3102e-05
5.31361e-05
5.3179e-05
5.32393e-05
5.3308e-05
5.33933e-05
5.34895e-05
5.36008e-05
5.3725e-05
5.38643e-05
5.4017e-05
5.41847e-05
5.43665e-05
5.45634e-05
5.47747e-05
5.50016e-05
5.52429e-05
5.55005e-05
5.57729e-05
5.60618e-05
5.63665e-05
5.66891e-05
5.70289e-05
5.73881e-05
5.77665e-05
5.81663e-05
5.85877e-05
5.90333e-05
5.95034e-05
6.00011e-05
6.05274e-05
6.10855e-05
6.16771e-05
6.2305e-05
6.2971e-05
6.3679e-05
6.44348e-05
6.52578e-05
6.61526e-05
6.71442e-05
6.82498e-05
6.95139e-05
7.09088e-05
7.19437e-05
6.30819e-05
9.65208e-05
9.43615e-05
9.34739e-05
9.18084e-05
9.08647e-05
8.92882e-05
8.82957e-05
8.67976e-05
8.57687e-05
8.43498e-05
8.32859e-05
8.19449e-05
8.08607e-05
7.95748e-05
7.85225e-05
7.72802e-05
7.62625e-05
7.50707e-05
7.40911e-05
7.29547e-05
7.20176e-05
7.0941e-05
7.00506e-05
6.90369e-05
6.81969e-05
6.72484e-05
6.64596e-05
6.55793e-05
6.4846e-05
6.40323e-05
6.33559e-05
6.26085e-05
6.19892e-05
6.13067e-05
6.07417e-05
6.01199e-05
5.96073e-05
5.90432e-05
5.85795e-05
5.80693e-05
5.76488e-05
5.71866e-05
5.6798e-05
5.63774e-05
5.60178e-05
5.56316e-05
5.52955e-05
5.49363e-05
5.46177e-05
5.42782e-05
5.39718e-05
5.36416e-05
5.33357e-05
5.30293e-05
5.27381e-05
5.24323e-05
5.21509e-05
5.18573e-05
5.15883e-05
5.1319e-05
5.104e-05
5.07766e-05
5.05172e-05
5.02649e-05
5.00185e-05
4.97771e-05
4.95425e-05
4.93139e-05
4.90928e-05
4.88718e-05
4.86545e-05
4.8436e-05
4.82185e-05
4.79958e-05
4.77699e-05
4.75348e-05
4.72924e-05
4.70362e-05
4.67683e-05
4.64823e-05
4.6183e-05
4.58629e-05
4.55255e-05
4.51648e-05
4.47839e-05
4.43781e-05
4.39513e-05
4.3501e-05
4.3033e-05
4.25467e-05
4.20518e-05
4.15475e-05
4.10336e-05
4.05516e-05
4.0125e-05
3.98258e-05
3.97445e-05
4.00074e-05
4.06467e-05
3.43561e-05
0.000104506
0.000102966
0.000102329
0.000101234
0.000100346
9.91529e-05
9.81511e-05
9.6942e-05
9.58996e-05
9.47099e-05
9.36593e-05
9.24984e-05
9.14533e-05
9.03224e-05
8.9291e-05
8.81878e-05
8.71701e-05
8.60926e-05
8.50887e-05
8.4035e-05
8.30451e-05
8.20141e-05
8.10392e-05
8.0029e-05
7.90682e-05
7.80726e-05
7.713e-05
7.61568e-05
7.52226e-05
7.42676e-05
7.33483e-05
7.24122e-05
7.15078e-05
7.05903e-05
6.97029e-05
6.88056e-05
6.79182e-05
6.70221e-05
6.6139e-05
6.52508e-05
6.43763e-05
6.35016e-05
6.26422e-05
6.1786e-05
6.09479e-05
6.01162e-05
5.93065e-05
5.85059e-05
5.77306e-05
5.69642e-05
5.62254e-05
5.54983e-05
5.47993e-05
5.41122e-05
5.34494e-05
5.28041e-05
5.21865e-05
5.14614e-05
5.07325e-05
4.9993e-05
4.9268e-05
4.85323e-05
4.78042e-05
4.706e-05
4.63177e-05
4.55585e-05
4.47983e-05
4.40144e-05
4.32214e-05
4.24323e-05
4.164e-05
4.08314e-05
4.00289e-05
3.9213e-05
3.84045e-05
3.75852e-05
3.6774e-05
3.59552e-05
3.5146e-05
3.43329e-05
3.35244e-05
3.27135e-05
3.19109e-05
3.11105e-05
3.03229e-05
2.95426e-05
2.87727e-05
2.80153e-05
2.72759e-05
2.65591e-05
2.58731e-05
2.52265e-05
2.46314e-05
2.4097e-05
2.37136e-05
2.34008e-05
2.33689e-05
2.36437e-05
2.43842e-05
1.89187e-05
0.000118315
0.000117173
0.00011664
0.00011576
0.000114796
0.000113687
0.000112559
0.000111343
0.000110147
0.000108888
0.000107669
0.000106395
0.000105163
0.00010388
0.000102638
0.000101348
0.000100096
9.87994e-05
9.75371e-05
9.6235e-05
9.49639e-05
9.3658e-05
9.23808e-05
9.10755e-05
8.97926e-05
8.84867e-05
8.72028e-05
8.58978e-05
8.46124e-05
8.33105e-05
8.20281e-05
8.07321e-05
7.94544e-05
7.8167e-05
7.68973e-05
7.56219e-05
7.43668e-05
7.31084e-05
7.18689e-05
7.06281e-05
6.9404e-05
6.81796e-05
6.69689e-05
6.57635e-05
6.45732e-05
6.33802e-05
6.2204e-05
6.10265e-05
5.9864e-05
5.87036e-05
5.75572e-05
5.64139e-05
5.5284e-05
5.4158e-05
5.30445e-05
5.19357e-05
5.08418e-05
4.97552e-05
4.8686e-05
4.76291e-05
4.65849e-05
4.5547e-05
4.4524e-05
4.35118e-05
4.25169e-05
4.15352e-05
4.05746e-05
3.96363e-05
3.87231e-05
3.78313e-05
3.69671e-05
3.61269e-05
3.53158e-05
3.45287e-05
3.37664e-05
3.30277e-05
3.23132e-05
3.16215e-05
3.09517e-05
3.03018e-05
2.96666e-05
2.90492e-05
2.84435e-05
2.78514e-05
2.6837e-05
2.58608e-05
2.49063e-05
2.39971e-05
2.31142e-05
2.22815e-05
2.14821e-05
2.07413e-05
2.00415e-05
1.9416e-05
1.88211e-05
1.84111e-05
1.81795e-05
1.79935e-05
1.87271e-05
1.44605e-05
0.000134673
0.000134036
0.000133623
0.000133045
0.000132079
0.00013111
0.000129961
0.000128826
0.00012761
0.000126394
0.000125145
0.00012388
0.000122606
0.000121304
0.000120006
0.000118674
0.00011735
0.00011599
0.000114641
0.000113255
0.000111881
0.000110473
0.000109062
0.000107643
0.000106231
0.000104783
0.000103352
0.000101892
0.000100448
9.89772e-05
9.75109e-05
9.602e-05
9.45305e-05
9.30197e-05
9.1509e-05
8.99809e-05
8.84619e-05
8.69297e-05
8.54042e-05
8.38702e-05
8.23404e-05
8.08033e-05
7.92737e-05
7.77382e-05
7.62128e-05
7.46841e-05
7.31677e-05
7.16518e-05
7.01503e-05
6.86532e-05
6.71723e-05
6.56994e-05
6.42443e-05
6.27993e-05
6.13715e-05
5.9955e-05
5.8557e-05
5.71681e-05
5.57972e-05
5.4445e-05
5.3107e-05
5.17907e-05
5.04907e-05
4.92083e-05
4.79407e-05
4.66867e-05
4.54451e-05
4.42136e-05
4.29921e-05
4.17779e-05
4.0572e-05
3.93714e-05
3.81779e-05
3.69907e-05
3.58151e-05
3.46464e-05
3.3486e-05
3.23332e-05
3.11888e-05
3.00557e-05
2.89336e-05
2.7828e-05
2.67368e-05
2.56668e-05
2.46124e-05
2.35796e-05
2.25642e-05
2.15729e-05
2.05987e-05
1.96509e-05
1.87405e-05
1.78703e-05
1.70523e-05
1.63926e-05
1.59638e-05
1.61337e-05
1.60763e-05
1.58675e-05
1.58837e-05
1.31638e-05
0.000146471
0.000146581
0.000146309
0.000146105
0.000145299
0.000144623
0.000143655
0.000142783
0.00014176
0.000140785
0.000139731
0.000138688
0.000137606
0.000136511
0.000135397
0.000134257
0.000133107
0.000131923
0.000130735
0.000129509
0.00012828
0.000127013
0.000125741
0.000124435
0.00012312
0.00012177
0.000120414
0.000119022
0.000117635
0.000116214
0.000114784
0.000113329
0.000111864
0.000110375
0.000108875
0.000107353
0.000105821
0.000104267
0.00010269
0.000101102
9.95174e-05
9.78865e-05
9.62609e-05
9.46011e-05
9.29394e-05
9.12499e-05
8.95551e-05
8.78372e-05
8.61129e-05
8.43699e-05
8.26216e-05
8.08592e-05
7.90944e-05
7.73223e-05
7.55489e-05
7.37717e-05
7.1997e-05
7.02148e-05
6.84386e-05
6.66591e-05
6.48913e-05
6.31296e-05
6.13846e-05
5.96506e-05
5.79388e-05
5.62425e-05
5.45725e-05
5.29227e-05
5.13017e-05
4.97043e-05
4.81369e-05
4.65942e-05
4.50802e-05
4.3584e-05
4.21167e-05
4.06791e-05
3.92462e-05
3.78434e-05
3.64418e-05
3.50567e-05
3.36658e-05
3.2278e-05
3.08763e-05
2.9467e-05
2.8036e-05
2.65913e-05
2.51287e-05
2.36499e-05
2.21663e-05
2.06707e-05
1.91836e-05
1.76975e-05
1.62125e-05
1.47891e-05
1.34771e-05
1.24362e-05
1.20866e-05
1.3644e-05
1.38508e-05
1.43362e-05
0.000140715
0.000140393
0.000140266
0.000139945
0.000139807
0.000139463
0.000139295
0.000138936
0.000138732
0.000138358
0.000138113
0.000137724
0.000137437
0.000137028
0.000136698
0.000136265
0.000135892
0.000135431
0.000135013
0.000134519
0.000134054
0.000133524
0.00013301
0.000132436
0.000131867
0.000131242
0.000130609
0.0001299
0.000128787
0.000127647
0.000126485
0.0001253
0.000124098
0.000122875
0.000121637
0.000120372
0.000119087
0.000117774
0.000116439
0.000115079
0.000113694
0.000112277
0.000110841
0.000109369
0.000107876
0.000106348
0.000104797
0.000103211
0.000101602
9.99594e-05
9.82913e-05
9.65915e-05
9.48544e-05
9.30972e-05
9.13339e-05
8.95194e-05
8.77064e-05
8.58476e-05
8.39864e-05
8.20883e-05
8.01838e-05
7.82472e-05
7.62986e-05
7.43152e-05
7.23154e-05
7.02879e-05
6.82426e-05
6.61764e-05
6.40944e-05
6.19984e-05
5.98926e-05
5.77821e-05
5.56715e-05
5.35683e-05
5.14769e-05
4.94067e-05
4.73612e-05
4.53487e-05
4.33723e-05
4.14374e-05
3.95449e-05
3.76965e-05
3.58894e-05
3.4121e-05
3.23753e-05
3.06544e-05
2.89728e-05
2.72654e-05
2.55731e-05
2.3854e-05
2.2117e-05
2.03244e-05
1.84639e-05
1.65327e-05
1.46129e-05
1.26973e-05
1.10387e-05
1.00804e-05
1.19764e-05
1.21314e-05
0.000116482
0.000116711
0.000116799
0.000116876
0.000116946
0.000116986
0.000117043
0.000117056
0.0001171
0.000117091
0.000117118
0.000117087
0.000117093
0.000117042
0.000117026
0.000116955
0.000116914
0.000116821
0.000116752
0.000116636
0.000116535
0.000116392
0.000116258
0.000116084
0.000115913
0.000115706
0.000115496
0.000115253
0.000115007
0.000114739
0.000114463
0.000114166
0.000113859
0.000113531
0.000113187
0.000112826
0.000112452
0.000112061
0.000111647
0.000111212
0.000110752
0.000110266
0.000109753
0.000109208
0.000108632
0.000108028
0.000107396
0.000106734
0.000106043
0.000105309
0.000104537
0.000103715
0.000102843
0.000101912
0.000100879
9.93261e-05
9.77548e-05
9.61104e-05
9.44454e-05
9.27214e-05
9.09756e-05
8.91847e-05
8.73794e-05
8.5533e-05
8.3663e-05
8.17664e-05
7.98086e-05
7.78303e-05
7.58028e-05
7.37493e-05
7.16548e-05
6.95322e-05
6.73658e-05
6.51688e-05
6.29259e-05
6.06466e-05
5.83179e-05
5.59466e-05
5.35234e-05
5.10543e-05
4.85354e-05
4.59744e-05
4.33741e-05
4.07466e-05
3.8103e-05
3.54617e-05
3.28417e-05
3.02656e-05
2.77662e-05
2.53514e-05
2.30092e-05
2.0736e-05
1.85352e-05
1.62975e-05
1.4135e-05
1.21306e-05
1.03197e-05
8.92079e-06
8.3794e-06
1.15372e-05
7.48633e-05
7.53007e-05
7.53849e-05
7.56571e-05
7.57488e-05
7.59732e-05
7.60827e-05
7.62759e-05
7.6401e-05
7.65729e-05
7.67083e-05
7.68653e-05
7.70061e-05
7.71521e-05
7.7294e-05
7.7431e-05
7.75703e-05
7.76991e-05
7.78329e-05
7.79535e-05
7.80795e-05
7.81914e-05
7.83079e-05
7.84104e-05
7.85163e-05
7.86092e-05
7.87046e-05
7.87887e-05
7.88753e-05
7.89522e-05
7.90292e-05
7.90978e-05
7.9164e-05
7.9222e-05
7.92758e-05
7.93215e-05
7.93607e-05
7.93903e-05
7.9415e-05
7.94305e-05
7.94393e-05
7.94392e-05
7.94313e-05
7.94142e-05
7.93893e-05
7.93557e-05
7.93095e-05
7.92488e-05
7.91714e-05
7.9074e-05
7.89555e-05
7.88113e-05
7.86409e-05
7.84398e-05
7.82081e-05
7.79486e-05
7.76746e-05
7.73638e-05
7.7032e-05
7.66535e-05
7.62372e-05
7.56532e-05
7.48258e-05
7.39415e-05
7.30035e-05
7.20225e-05
7.09857e-05
6.99068e-05
6.87674e-05
6.75705e-05
6.63119e-05
6.50063e-05
6.36066e-05
6.21421e-05
6.05846e-05
5.89462e-05
5.72088e-05
5.53793e-05
5.34467e-05
5.14173e-05
4.92862e-05
4.70614e-05
4.47442e-05
4.23459e-05
3.98755e-05
3.73434e-05
3.47444e-05
3.20923e-05
2.93096e-05
2.64438e-05
2.34813e-05
2.04591e-05
1.74836e-05
1.4634e-05
1.19458e-05
9.59159e-06
7.77093e-06
6.54232e-06
5.8732e-06
6.77701e-06
6.97595e-06
6.99261e-06
7.00418e-06
7.01783e-06
7.03166e-06
7.04813e-06
7.06219e-06
7.08012e-06
7.09476e-06
7.11346e-06
7.12896e-06
7.14812e-06
7.16462e-06
7.18414e-06
7.20169e-06
7.22153e-06
7.2401e-06
7.26032e-06
7.27987e-06
7.30056e-06
7.32109e-06
7.34238e-06
7.3639e-06
7.38597e-06
7.40856e-06
7.4316e-06
7.4554e-06
7.47961e-06
7.50472e-06
7.53025e-06
7.55676e-06
7.58374e-06
7.61174e-06
7.64031e-06
7.66994e-06
7.70026e-06
7.73168e-06
7.76393e-06
7.79738e-06
7.83178e-06
7.86744e-06
7.9042e-06
7.94228e-06
7.98155e-06
8.02216e-06
8.06393e-06
8.10687e-06
8.15092e-06
8.1961e-06
8.24237e-06
8.28979e-06
8.33833e-06
8.38819e-06
8.43941e-06
8.49232e-06
8.547e-06
8.60325e-06
8.66011e-06
8.71784e-06
8.77449e-06
8.83045e-06
8.8831e-06
8.93592e-06
8.99072e-06
9.04705e-06
9.10628e-06
9.16759e-06
9.23233e-06
9.2992e-06
9.36976e-06
9.44352e-06
9.52128e-06
9.59994e-06
9.68394e-06
9.76897e-06
9.85895e-06
9.95068e-06
1.00472e-05
1.01466e-05
1.02516e-05
1.03616e-05
1.04795e-05
1.0606e-05
1.07446e-05
1.08964e-05
1.10594e-05
1.12175e-05
1.13242e-05
1.13513e-05
1.12264e-05
1.07771e-05
9.77143e-06
8.06237e-06
5.93906e-06
3.61683e-06
2.63514e-06
2.55597e-06
3.91736e-06
4.01818e-06
4.33058e-06
1.09393e-05
2.07739e-06
2.60067e-06
3.51752e-06
4.54844e-06
5.6232e-06
6.48758e-06
7.3372e-06
8.15048e-06
8.90656e-06
9.62005e-06
1.03382e-05
1.14569e-05
1.33359e-05
1.54704e-05
1.78509e-05
1.75965e-05
1.55409e-05
1.02868e-05
3.99556e-06
5.88e-06
2.18621e-06
2.47521e-06
3.18439e-06
4.05645e-06
4.86417e-06
5.69344e-06
6.55252e-06
7.41591e-06
8.29964e-06
9.2753e-06
1.03729e-05
1.20263e-05
1.41003e-05
1.70547e-05
1.83246e-05
1.74934e-05
1.47064e-05
9.53266e-06
3.96673e-06
4.94628e-06
2.69544e-06
2.90127e-06
3.41688e-06
4.01119e-06
4.71753e-06
5.48183e-06
6.31649e-06
7.22237e-06
8.39008e-06
9.51049e-06
1.10222e-05
1.29406e-05
1.58383e-05
1.80276e-05
1.83055e-05
1.71507e-05
1.40001e-05
8.86946e-06
3.83877e-06
5.05658e-06
3.43954e-06
3.63823e-06
3.87602e-06
4.36894e-06
4.92969e-06
5.67452e-06
6.58296e-06
7.71582e-06
9.48959e-06
1.12202e-05
1.29552e-05
1.57431e-05
1.82226e-05
1.91996e-05
1.88229e-05
1.70304e-05
1.32324e-05
7.97754e-06
3.25612e-06
5.68871e-06
4.47717e-06
4.61694e-06
4.63444e-06
5.19475e-06
5.69388e-06
6.58673e-06
7.84453e-06
9.60107e-06
1.31112e-05
1.47786e-05
1.70924e-05
1.93543e-05
2.044e-05
2.04421e-05
1.92223e-05
1.65342e-05
1.24875e-05
6.87721e-06
2.37264e-06
6.89545e-06
5.97702e-06
6.04841e-06
6.02757e-06
6.77331e-06
7.76988e-06
9.3532e-06
1.16083e-05
1.61275e-05
1.95235e-05
2.09988e-05
2.23916e-05
2.30822e-05
2.28815e-05
2.1681e-05
1.90982e-05
1.59601e-05
1.1552e-05
5.14261e-06
1.46377e-06
9.04357e-06
8.62735e-06
8.85892e-06
9.4655e-06
1.11852e-05
1.36765e-05
1.70887e-05
2.20438e-05
2.879e-05
2.94414e-05
2.91225e-05
2.83305e-05
2.69256e-05
2.47864e-05
2.16761e-05
1.85297e-05
1.48174e-05
1.00972e-05
3.81871e-06
7.18741e-07
1.4659e-05
1.61384e-05
1.73669e-05
1.96653e-05
2.31966e-05
2.75235e-05
3.3098e-05
4.00643e-05
3.99365e-05
3.77731e-05
3.42801e-05
3.16628e-05
2.81016e-05
2.49271e-05
2.08587e-05
1.70833e-05
1.29135e-05
8.10238e-06
2.78093e-06
2.7682e-07
3.25297e-05
3.5486e-05
3.67124e-05
3.91741e-05
4.36278e-05
4.79717e-05
5.20227e-05
4.77955e-05
4.4172e-05
4.02467e-05
3.63711e-05
3.25813e-05
2.83683e-05
2.3326e-05
1.85614e-05
1.40707e-05
1.01881e-05
6.44242e-06
2.41395e-06
1.21309e-07
5.28239e-05
5.5708e-05
5.59617e-05
5.7466e-05
6.23173e-05
5.94029e-05
5.5117e-05
5.01558e-05
4.60712e-05
4.11115e-05
3.70361e-05
3.18627e-05
2.70273e-05
1.9757e-05
1.40312e-05
9.61353e-06
7.52755e-06
5.97824e-06
2.86072e-06
1.85515e-07
5.03429e-05
5.30756e-05
5.34412e-05
5.50242e-05
5.98194e-05
5.77658e-05
5.36537e-05
4.88903e-05
4.50352e-05
4.02425e-05
3.65669e-05
3.14368e-05
2.76181e-05
2.04747e-05
1.48111e-05
9.75907e-06
7.15857e-06
5.04753e-06
2.13223e-06
1.45965e-07
2.80254e-05
3.09218e-05
3.22778e-05
3.47516e-05
3.91501e-05
4.36893e-05
4.96431e-05
4.56334e-05
4.26521e-05
3.8426e-05
3.56691e-05
3.13186e-05
2.83393e-05
2.39321e-05
1.93671e-05
1.46134e-05
1.00119e-05
5.4799e-06
1.67013e-06
1.04181e-07
1.31035e-05
1.40472e-05
1.50248e-05
1.70707e-05
2.02344e-05
2.42833e-05
2.95458e-05
3.64332e-05
3.97666e-05
3.61571e-05
3.40278e-05
3.06151e-05
2.76738e-05
2.45056e-05
2.12651e-05
1.73734e-05
1.29718e-05
7.8096e-06
2.36621e-06
1.39808e-07
8.63838e-06
8.11699e-06
8.2644e-06
8.65988e-06
1.00789e-05
1.22226e-05
1.52245e-05
1.9846e-05
2.63269e-05
2.74919e-05
2.77859e-05
2.75965e-05
2.66723e-05
2.47309e-05
2.14452e-05
1.86183e-05
1.48273e-05
1.00098e-05
3.48264e-06
3.78681e-07
6.73715e-06
5.80511e-06
5.86952e-06
5.8322e-06
6.51353e-06
7.37389e-06
8.76023e-06
1.07504e-05
1.48407e-05
1.81986e-05
1.99883e-05
2.17369e-05
2.27554e-05
2.2788e-05
2.1842e-05
1.89556e-05
1.5829e-05
1.14923e-05
5.11094e-06
1.17579e-06
5.62043e-06
4.42681e-06
4.56447e-06
4.60694e-06
5.15444e-06
5.64459e-06
6.48893e-06
7.6415e-06
9.24783e-06
1.2374e-05
1.41532e-05
1.65295e-05
1.90613e-05
2.0356e-05
2.04626e-05
1.93546e-05
1.64116e-05
1.2433e-05
6.9319e-06
2.22498e-06
5.0423e-06
3.43518e-06
3.63731e-06
3.91544e-06
4.41442e-06
4.9945e-06
5.72909e-06
6.61097e-06
7.6882e-06
9.34028e-06
1.09295e-05
1.2685e-05
1.54331e-05
1.81307e-05
1.92566e-05
1.88996e-05
1.70966e-05
1.31887e-05
8.02996e-06
3.20694e-06
5.04738e-06
2.73335e-06
2.9326e-06
3.46323e-06
4.09236e-06
4.80656e-06
5.58383e-06
6.42158e-06
7.31361e-06
8.42247e-06
9.50561e-06
1.09539e-05
1.28397e-05
1.5666e-05
1.80432e-05
1.83943e-05
1.72082e-05
1.39472e-05
8.94529e-06
3.7988e-06
6.11973e-06
2.24179e-06
2.53611e-06
3.25407e-06
4.13366e-06
4.98466e-06
5.81947e-06
6.68651e-06
7.55666e-06
8.43101e-06
9.36977e-06
1.04312e-05
1.20464e-05
1.40909e-05
1.69986e-05
1.83783e-05
1.75187e-05
1.47186e-05
9.58478e-06
3.95287e-06
1.09719e-05
2.13798e-06
2.66023e-06
3.59572e-06
4.64383e-06
5.72238e-06
6.63775e-06
7.48919e-06
8.31081e-06
9.06845e-06
9.77594e-06
1.04655e-05
1.1508e-05
1.33031e-05
1.54678e-05
1.78817e-05
1.76242e-05
1.552e-05
1.0348e-05
3.99018e-06
1.23421e-06
0.000116558
0.000294184
0.000330906
0.00033481
0.000335356
0.000335357
0.000335342
0.000335343
0.000335345
0.000335345
0.000335343
0.000335342
0.000335357
0.000335356
0.00033481
0.000330906
0.000294184
0.000116558
1.23421e-06
1.36973e-06
6.8167e-05
0.000219584
0.000309504
0.000330909
0.000334527
0.000335273
0.000335315
0.000335296
0.000335287
0.000335287
0.000335296
0.000335315
0.000335273
0.000334527
0.000330909
0.000309503
0.000219584
6.8167e-05
1.36973e-06
1.51338e-06
5.28962e-05
0.00017646
0.00028058
0.000322148
0.000332504
0.000334604
0.0003351
0.000335168
0.000335172
0.000335172
0.000335168
0.0003351