/*--------------------------------*- C++ -*----------------------------------*\
| =========                 |                                                 |
| \\      /  F ield         | OpenFOAM: The Open Source CFD Toolbox           |
|  \\    /   O peration     | Version:  2.1.0                                 |
|   \\  /    A nd           | Web:      www.OpenFOAM.org                      |
|    \\/     M anipulation  |                                                 |
\*---------------------------------------------------------------------------*/
FoamFile
{
    version     2.0;
    format      ascii;
    class       volScalarField;
    location    "0.49";
    object      omega;
}
// * * * * * * * * * * * * * * * * * * * * * * * * * * * * * * * * * * * * * //

dimensions      [0 0 -1 0 0 0 0];

internalField   nonuniform List<scalar> 
6400
(
1643.61
1644.56
1644.64
1644.5
1643.96
1643.7
1642.97
1642.62
1641.81
1641.41
1640.55
1640.07
1639.19
1638.62
1637.72
1637.04
1636.12
1635.34
1634.39
1633.51
1632.51
1631.55
1630.51
1629.47
1628.39
1627.29
1626.17
1625.01
1623.84
1622.61
1621.38
1620.09
1618.79
1617.43
1616.06
1614.62
1613.16
1611.63
1610.07
1608.43
1606.73
1604.94
1603.06
1601.06
1598.95
1596.68
1594.27
1591.67
1588.89
1585.89
1582.67
1579.2
1575.47
1571.41
1566.93
1562
1556.51
1550.97
1544.92
1538.77
1532.15
1525.4
1518.25
1510.9
1503.14
1495.12
1486.68
1477.92
1468.64
1458.89
1448.62
1437.75
1426.3
1414.16
1401.36
1387.84
1373.62
1358.71
1343.15
1326.98
1310.27
1293.03
1275.12
1255.97
1234.46
1211.87
1187.02
1159.13
1126.77
1087.62
1038.18
972.352
882.858
763.275
609.728
537.897
565.859
735.16
892.95
942.847
687.726
687.929
689.12
690.076
691.418
692.776
694.171
695.734
697.192
698.881
700.422
702.202
703.84
705.7
707.442
709.378
711.227
713.239
715.194
717.288
719.353
721.535
723.714
725.995
728.296
730.694
733.132
735.666
738.263
740.956
743.727
746.599
749.565
752.639
755.824
759.131
762.571
766.154
769.862
773.713
777.707
781.853
786.163
790.639
795.297
800.137
805.176
810.417
815.875
821.556
827.474
833.641
840.065
846.728
853.661
860.855
868.316
876.174
884.343
892.933
901.888
911.307
921.163
931.535
942.423
953.906
965.955
978.458
991.505
1005.29
1019.78
1035.07
1051.2
1068.24
1086.26
1105.34
1125.58
1147.07
1169.96
1194.36
1220.49
1248.58
1278.37
1308.84
1341.07
1373.94
1407.03
1439.09
1468.85
1494.66
1513.35
1521.93
1523.64
1509.31
1473.94
1394.66
1284.97
1150.73
1005.89
848.271
498.737
501.884
503.38
506.428
508.44
511.524
513.857
516.979
519.561
522.745
525.546
528.818
531.826
535.21
538.423
541.941
545.362
549.033
552.655
556.49
560.319
564.335
568.377
572.588
576.853
581.276
585.77
590.414
595.153
600.038
605.036
610.183
615.458
620.886
626.455
632.183
638.061
644.104
650.356
656.809
663.455
670.294
677.363
684.657
692.197
699.987
708.043
716.374
724.993
733.907
743.126
752.652
762.493
772.668
783.179
794.048
805.287
816.939
828.996
841.497
854.437
867.851
881.734
896.113
910.981
926.354
942.239
958.705
975.674
992.986
1010.67
1028.63
1046.85
1065.24
1083.77
1102.4
1121.09
1139.82
1158.6
1177.44
1196.36
1215.39
1234.54
1253.84
1273.29
1292.65
1311.79
1330.16
1347.1
1361.43
1369.26
1372.07
1365.46
1339.18
1290.43
1210.7
1102.17
960.994
797.359
628.09
449.454
454.432
456.635
461.025
463.809
468.171
471.37
475.733
479.271
483.68
487.515
492.013
496.123
500.748
505.122
509.905
514.539
519.509
524.409
529.593
534.768
540.189
545.646
551.324
557.07
563.015
569.053
575.278
581.614
588.131
594.777
601.602
608.572
615.723
623.032
630.525
638.19
646.045
654.062
662.262
670.662
679.273
688.055
697.031
706.18
715.512
725.009
734.673
744.489
754.453
764.551
774.775
785.11
795.553
806.083
816.701
827.391
838.154
848.97
859.837
870.735
881.657
892.581
903.499
914.381
925.21
935.967
946.688
957.309
967.835
978.222
988.462
998.498
1008.27
1017.77
1026.87
1035.56
1043.68
1051.17
1057.86
1063.63
1068.26
1071.28
1072.65
1072.96
1070.39
1065.49
1057.36
1045.83
1030.06
1009.49
983.119
949.724
907.522
854.513
789.007
712.259
629.238
552.936
496.626
438.325
444.411
447.052
452.325
455.634
460.857
464.639
469.837
473.995
479.214
483.691
488.97
493.731
499.105
504.124
509.619
514.877
520.512
526.002
531.793
537.505
543.462
549.386
555.513
561.641
567.937
574.26
580.728
587.237
593.867
600.543
607.32
614.145
621.055
628.009
635.033
642.094
649.208
656.35
663.528
670.719
677.927
685.139
692.356
699.558
706.748
713.903
721.027
728.095
735.112
742.056
748.927
755.707
762.397
768.969
775.42
781.773
787.979
794.021
799.86
805.48
810.831
815.896
820.622
824.986
828.934
832.436
835.441
837.904
839.778
840.854
841.311
841.37
840.195
838.465
835.595
831.948
827.139
821.38
814.412
806.351
797.028
786.507
774.755
761.824
747.603
732.337
715.833
698.278
679.458
659.379
637.658
614.172
588.191
559.091
527.76
495.241
465.359
444.196
432.55
429.599
435.619
438.201
443.371
446.547
451.632
455.205
460.201
464.065
468.995
473.084
477.973
482.242
487.112
491.524
496.388
500.913
505.778
510.39
515.256
519.933
524.799
529.52
534.381
539.125
543.97
548.72
553.534
558.321
563.159
567.961
572.788
577.566
582.345
587.061
591.751
596.362
600.921
605.382
609.763
614.024
618.179
622.178
626.048
629.73
633.252
636.555
639.662
642.519
645.144
647.484
649.552
651.3
652.734
653.811
654.533
654.903
655.034
654.861
654.134
653.117
651.563
649.642
647.196
644.337
640.964
637.156
632.851
628.107
622.891
617.248
611.19
604.78
597.98
590.902
583.483
575.844
567.927
559.887
551.677
543.381
535.013
526.652
518.306
510.032
501.819
493.566
485.303
477.071
468.775
460.4
451.813
442.96
433.685
424.099
414.708
406.896
403.163
402.114
402.092
401.533
406.383
408.44
412.558
415.003
419.029
421.708
425.61
428.439
432.214
435.137
438.793
441.77
445.311
448.307
451.734
454.718
458.027
460.97
464.155
467.033
470.086
472.878
475.781
478.439
481.149
483.636
486.134
488.466
490.77
492.884
494.927
496.757
498.479
499.966
501.312
502.405
503.328
503.981
504.377
504.543
504.57
504.198
503.66
502.769
501.684
500.261
498.629
496.675
494.508
492.039
489.365
486.415
483.277
479.914
476.412
472.663
468.798
464.74
460.595
456.333
452.017
447.649
443.266
438.876
434.493
430.223
426.028
421.996
418.099
414.411
410.9
407.589
404.484
401.604
398.942
396.511
394.276
392.285
390.48
388.924
387.545
386.385
385.374
384.537
383.802
383.18
382.605
382.072
381.532
381.003
380.488
380.161
380.036
380.504
381.766
384.267
388.86
392.555
393.618
355.97
359.436
360.862
363.663
365.186
367.834
369.368
371.81
373.305
375.516
376.923
378.899
380.181
381.913
383.039
384.514
385.452
386.658
387.383
388.307
388.794
389.387
389.667
389.852
389.902
389.825
389.495
389.104
388.372
387.554
386.405
385.164
383.608
381.958
380.013
377.99
375.701
373.342
370.75
368.103
365.271
362.398
359.372
356.343
353.2
350.088
346.908
343.793
340.653
337.609
334.586
331.671
328.839
326.175
323.637
321.277
319.084
317.099
315.316
313.768
312.451
311.39
310.584
310.09
309.864
309.807
310.077
310.584
311.358
312.362
313.623
315.102
316.822
318.748
320.896
323.236
325.778
328.493
331.376
334.427
337.636
340.979
344.446
348.006
351.649
355.34
359.066
362.793
366.515
370.21
373.89
377.568
381.301
385.148
389.331
394.106
399.718
406.7
412.262
414.53
297.075
298.242
298.67
299.391
299.722
300.186
300.382
300.536
300.566
300.532
300.232
299.987
299.408
298.925
298.077
297.339
296.23
295.237
293.881
292.639
291.052
289.574
287.781
286.084
284.146
282.282
280.223
278.238
276.091
274.037
271.859
269.794
267.646
265.625
263.567
261.643
259.72
257.944
256.211
254.633
253.138
251.806
250.59
249.549
248.65
247.937
247.388
247.069
246.927
246.898
247.181
247.626
248.322
249.158
250.234
251.464
252.924
254.546
256.391
258.404
260.633
263.035
265.648
268.44
271.44
274.628
278.012
281.581
285.348
289.303
293.461
297.814
302.378
307.145
312.13
317.327
322.753
328.402
334.289
340.408
346.773
353.379
360.234
367.332
374.676
382.252
390.058
398.069
406.274
414.643
423.161
431.808
440.587
449.513
458.664
468.277
478.996
490.649
502.33
508.103
238.661
237.46
236.927
235.807
235.09
233.899
233.029
231.768
230.779
229.456
228.371
227.012
225.858
224.485
223.294
221.932
220.735
219.411
218.241
216.982
215.872
214.708
213.69
212.648
211.753
210.858
210.113
209.388
208.816
208.283
207.904
207.585
207.428
207.358
207.35
207.54
207.788
208.215
208.714
209.387
210.149
211.064
212.084
213.246
214.524
215.937
217.472
219.137
220.927
222.845
224.899
227.075
229.386
231.81
234.371
237.044
239.858
242.787
245.858
249.049
252.386
255.848
259.462
263.207
267.111
271.156
275.367
279.731
284.27
288.978
293.874
298.955
304.239
309.728
315.439
321.377
327.561
333.999
340.711
347.706
355.01
362.635
370.61
378.953
387.698
396.867
406.501
416.633
427.316
438.596
450.54
463.219
476.725
491.159
506.641
523.253
541.011
559.5
574.209
580.771
258.982
258.413
258.117
257.469
256.957
256.192
255.48
254.578
253.681
252.634
251.576
250.39
249.201
247.892
246.594
245.2
243.817
242.367
240.929
239.455
237.996
236.532
235.088
233.668
232.277
230.935
229.635
228.404
227.23
226.145
225.131
224.221
223.4
222.694
222.093
221.623
221.272
221.097
221.028
221.043
221.333
221.641
222.194
222.798
223.624
224.523
225.628
226.822
228.209
229.697
231.367
233.147
235.1
237.171
239.419
241.775
244.298
246.935
249.735
252.656
255.738
258.949
262.32
265.826
269.495
273.309
277.289
281.423
285.732
290.206
294.866
299.704
304.738
309.969
315.415
321.078
326.972
333.104
339.492
346.143
353.077
360.306
367.85
375.727
383.959
392.568
401.58
411.02
420.922
431.314
442.239
453.747
465.934
478.869
492.699
507.556
523.549
540.314
554.07
560.295
318.485
320.108
320.739
321.894
322.458
323.424
323.889
324.629
324.977
325.421
325.604
325.693
325.694
325.509
325.169
324.754
324.107
323.439
322.503
321.574
320.365
319.178
317.717
316.287
314.596
312.941
311.06
309.202
307.151
305.135
302.951
300.817
298.544
296.335
294.017
291.777
289.459
287.245
284.984
282.846
280.7
278.712
276.775
275.003
273.321
271.814
270.435
269.243
268.21
267.375
266.725
266.307
266.111
266.052
266.249
266.66
267.264
268.079
269.096
270.323
271.753
273.39
275.227
277.266
279.506
281.947
284.58
287.395
290.396
293.572
296.929
300.456
304.157
308.029
312.073
316.287
320.668
325.216
329.926
334.798
339.804
344.953
350.224
355.62
361.119
366.724
372.414
378.188
384.033
389.949
395.939
402.006
408.151
414.551
421.342
428.936
437.653
447.917
458.792
464.508
369.689
373.088
374.5
377.269
378.812
381.451
383.038
385.504
387.084
389.371
390.93
393.023
394.518
396.395
397.778
399.433
400.662
402.08
403.117
404.277
405.089
405.972
406.53
407.111
407.398
407.586
407.641
407.56
407.231
406.815
406.151
405.392
404.39
403.291
401.959
400.529
398.792
396.941
394.818
392.58
390.103
387.519
384.736
381.868
378.838
375.75
372.554
369.326
366.041
362.76
359.468
356.217
352.998
349.847
346.758
343.811
340.987
338.329
335.823
333.514
331.392
329.489
327.807
326.364
325.158
324.194
323.46
322.98
322.75
322.675
322.808
323.227
323.78
324.573
325.479
326.583
327.78
329.13
330.546
332.072
333.704
335.437
337.256
339.16
341.133
343.197
345.32
347.533
349.815
352.21
354.721
357.411
360.317
363.509
366.965
371.059
376.193
382.8
387.658
389.445
407.605
412.355
414.372
418.389
420.793
424.699
427.331
431.096
433.861
437.505
440.403
443.961
446.945
450.42
453.45
456.844
459.888
463.198
466.223
469.439
472.416
475.522
478.422
481.402
484.196
487.027
489.691
492.346
494.84
497.291
499.577
501.792
503.831
505.77
507.52
509.147
510.655
512.005
513.181
514.164
514.933
515.457
515.708
515.79
515.612
515.092
514.348
513.275
511.948
510.305
508.394
506.18
503.698
500.933
497.91
494.63
491.117
487.397
483.497
479.438
475.222
470.848
466.354
461.771
457.109
452.407
447.688
443.036
438.433
433.953
429.592
425.408
421.394
417.575
413.908
410.453
407.167
404.098
401.193
398.482
395.874
393.442
391.088
388.863
386.676
384.593
382.511
380.485
378.434
376.422
374.395
372.45
370.583
369.13
368.136
367.762
368.619
372.371
375.505
376.397
424.745
430.519
432.998
437.949
441.015
445.883
449.345
454.136
457.893
462.638
466.63
471.356
475.538
480.266
484.603
489.348
493.815
498.587
503.16
507.961
512.62
517.448
522.173
527.024
531.798
536.662
541.468
546.336
551.157
556.021
560.841
565.681
570.473
575.262
579.991
584.694
589.392
594.047
598.664
603.22
607.706
612.103
616.406
620.595
624.652
628.561
632.312
635.878
639.253
642.408
645.334
648.004
650.407
652.517
654.318
655.786
656.904
657.578
657.877
657.94
657.426
656.711
655.478
653.931
651.866
649.421
646.462
643.087
639.213
634.909
630.127
624.919
619.259
613.222
606.846
600.131
593.093
585.798
578.198
570.389
562.317
554.096
545.645
537.066
528.275
519.292
510.072
500.613
490.735
480.396
469.657
458.341
446.475
433.95
421.516
408.818
398.135
391.547
388.724
387.46
426.682
432.35
434.816
439.72
442.819
447.676
451.226
456.069
459.978
464.846
469.057
473.988
478.466
483.496
488.224
493.38
498.344
503.646
508.837
514.299
519.708
525.339
530.958
536.763
542.585
548.565
554.58
560.733
566.93
573.253
579.625
586.107
592.643
599.275
605.965
612.742
619.576
626.48
633.436
640.451
647.509
654.61
661.747
668.911
676.097
683.297
690.5
697.691
704.858
712.01
719.126
726.201
733.223
740.182
747.068
753.867
760.58
767.176
773.658
779.985
786.146
792.169
797.971
803.563
808.874
813.898
818.571
822.875
826.748
830.167
833.074
835.432
837.186
838.093
838.446
838.37
836.931
835.024
831.822
827.844
822.529
816.163
808.339
799.201
788.434
776.13
762.104
746.203
728.474
708.618
686.578
661.898
634.291
603.225
569.494
532.662
495.577
460.596
435.424
418.802
435.115
439.665
441.688
445.717
448.285
452.285
455.232
459.224
462.477
466.508
470.029
474.136
477.9
482.118
486.119
490.478
494.712
499.238
503.708
508.424
513.136
518.065
523.03
528.19
533.42
538.832
544.335
550.012
555.796
561.749
567.823
574.067
580.448
587.004
593.714
600.607
607.672
614.93
622.359
629.981
637.785
645.783
653.967
662.341
670.896
679.68
688.679
697.92
707.397
717.051
726.914
736.952
747.174
757.559
768.104
778.786
789.609
800.537
811.577
822.7
833.913
845.194
856.547
867.956
879.415
890.905
902.41
913.906
925.36
936.743
948.124
959.418
970.65
981.759
992.747
1003.53
1014.06
1024.3
1034.09
1043.41
1052.04
1059.88
1066.65
1072.14
1075.5
1076.93
1077.09
1072.66
1065.4
1052.76
1034.96
1009.86
976.438
932.191
876.726
807.096
724.995
634.413
553.221
488.493
482.535
485.293
486.624
489.355
491.17
493.939
496.045
498.851
501.181
504.043
506.572
509.516
512.235
515.278
518.171
521.328
524.398
527.686
530.935
534.37
537.804
541.401
545.028
548.801
552.628
556.593
560.63
564.8
569.062
573.449
577.943
582.567
587.311
592.191
597.199
602.348
607.632
613.056
618.669
624.455
630.442
636.631
643.045
649.695
656.605
663.739
671.126
678.755
686.64
694.834
703.328
712.151
721.31
730.82
740.686
750.917
761.541
772.554
783.987
795.846
808.164
820.954
834.255
848.088
862.47
877.419
892.948
909.075
925.807
943.174
961.186
979.573
998.43
1017.68
1037.27
1057.14
1077.24
1097.5
1117.9
1138.4
1158.98
1179.63
1200.3
1221.09
1241.98
1262.93
1283.71
1303.81
1322.72
1339.08
1348.97
1352.74
1348.13
1320.85
1271.28
1196.04
1093.13
963.501
802.406
630.331
666.371
666.307
667.311
668.06
669.215
670.351
671.549
672.88
674.13
675.578
676.9
678.431
679.838
681.439
682.937
684.607
686.203
687.943
689.639
691.455
693.251
695.148
697.047
699.032
701.036
703.119
705.237
707.432
709.682
712.007
714.409
716.893
719.466
722.131
724.897
727.771
730.764
733.889
737.125
740.495
743.997
747.643
751.44
755.392
759.509
763.791
768.253
772.9
777.748
782.808
788.088
793.603
799.364
805.386
811.685
818.283
825.16
832.358
839.879
847.739
855.954
864.523
873.519
883.001
892.964
903.463
914.511
926.162
938.439
951.373
964.776
979.059
994.054
1009.98
1026.79
1044.64
1063.54
1083.62
1104.95
1127.63
1151.78
1177.51
1204.95
1234.3
1265.37
1297.14
1329.6
1361.19
1390.35
1414.76
1428.73
1433.87
1431.62
1415.27
1383.22
1321.98
1233.76
1122.43
997.866
848.979
1603.43
1604.09
1604
1603.53
1602.87
1602.34
1601.45
1600.89
1599.91
1599.3
1598.28
1597.6
1596.57
1595.81
1594.77
1593.91
1592.86
1591.91
1590.82
1589.78
1588.66
1587.54
1586.36
1585.17
1583.95
1582.69
1581.43
1580.13
1578.83
1577.48
1576.14
1574.75
1573.36
1571.92
1570.48
1568.99
1567.5
1565.96
1564.41
1562.82
1561.21
1559.56
1557.89
1556.16
1554.39
1552.55
1550.64
1548.63
1546.51
1544.27
1541.9
1539.39
1536.74
1533.93
1530.98
1527.89
1524.61
1521.06
1517.24
1512.96
1508.24
1502.85
1497.06
1490.98
1484.56
1477.88
1470.84
1463.49
1455.7
1447.54
1438.9
1429.79
1419.93
1409.54
1398.26
1386.26
1373.23
1359.29
1344.2
1328
1310.53
1291.82
1271.73
1250.27
1227.29
1202.45
1174.76
1141.99
1103.28
1056.42
996.237
916.939
816.311
705.51
584.537
535.345
556.122
721.963
886.834
939.969
865.883
324.717
176.599
119.701
95.2629
82.3298
76.1287
73.1614
72.1894
74.0342
80.9592
97.4732
118.901
156.245
207.13
271.576
349.01
444.091
560.326
610.164
693.157
329.159
219.135
154.327
121.755
104.135
92.9363
87.4671
85.542
87.5406
99.6682
115.603
144.588
184.777
237.991
300.007
372.447
459.618
544.767
568.424
544.566
318.722
242.261
180.151
147.622
125.458
111.88
105.98
104.313
108.678
120.226
144.155
174.754
218.807
269.574
326.204
390.284
462.716
514.393
522.447
444.603
305.156
256.276
198.155
171.192
146.154
134.086
128.451
126.902
131.267
154.181
177.743
213.994
256.473
302.112
352.314
406.694
455.383
474.15
474.208
388.169
300.408
266.282
214.671
191.99
168.73
159.188
155.461
155.219
175.095
195.487
222.889
257.411
292.871
330.869
370.843
410.086
432.656
426.362
427.644
360.066
300.353
273.821
232.016
214.521
201.04
197.444
197.432
211.714
227.903
247.928
272.694
299.49
326.839
355.91
383.539
398.931
396.764
367.852
383.275
352.302
312.828
296.037
273.001
265.944
263.43
263.072
269.924
279.164
291.204
306.027
322.385
339.266
355.572
369.83
376.638
374.928
343.621
300.595
349.772
386.856
375.2
371.385
361.607
356.849
351.336
349.137
348.61
350.777
355.085
359.388
364.161
366.784
367.788
366.316
357.912
331.021
277.521
232.625
331.167
499.006
483.78
476.396
457.494
448.603
434.264
427.228
417.554
412.366
404.314
397.85
388.689
378.171
365.48
349.209
316.757
268.567
204.27
161.917
324.847
563.322
541.928
532.273
509.214
498.17
479.527
469.246
452.413
440.853
423.943
409.786
390.565
370.501
341.89
302.409
252.099
198.34
143.332
116.226
327.442
544.497
524.339
515.278
493.515
483.123
465.719
456.391
441.413
431.212
416.542
404.027
387.463
369.713
345.135
309.448
259.78
203.696
143.1
112.914
325.842
457.727
446.528
440.884
424.925
417.623
406.658
401.39
395.709
392.904
389.458
385.976
381.292
374.261
364.765
353.377
326.913
279.406
212.228
170.759
324.159
358.983
343.882
338.896
330.935
327.532
324.418
323.574
326.201
331.068
338.591
346.603
354.835
362.492
366.304
367.65
363.226
339.548
286.901
239.315
325.593
336.702
296.823
279.289
254.093
245.7
242.735
242.543
250.918
261.629
275.626
292.953
311.773
331.997
352.123
370.586
379.771
380.964
352.308
307.636
335.37
346.804
288.199
262.301
221.054
203.639
189.138
184.796
184.315
198.114
215.381
236.85
263.168
291.982
321.703
353.808
385.653
403.679
404.793
374.325
370.011
374.534
289.332
256.046
206.273
184.32
161.487
151.833
147.755
147.159
165.207
186.582
214.648
250.479
287.689
327.749
370.181
414.004
438.686
433.714
420.184
429.617
294.019
246.232
190.018
163.841
140.069
128.559
123.21
121.756
125.971
147.13
171.33
207.673
251.247
298.674
350.889
407.727
460.338
480.496
471.532
531.611
308.243
233.704
173.726
141.932
120.385
107.424
101.742
100.164
104.702
116.035
139.027
169.954
213.875
265.795
324.096
390.677
467.084
518.626
522.985
686.664
318.129
211.269
148.265
116.998
99.8652
89.5238
84.4281
82.6415
84.6858
96.1669
112.091
140.591
180.788
234.264
297.372
371.282
461.109
548.512
570.801
863.381
313.536
170.706
115.745
92.0827
79.595
73.2055
70.5002
69.7172
72.0778
78.768
94.3921
116.024
152.752
203.777
268.91
347.719
444.777
563.132
613.197
646.054
32.1745
12.7362
11.3229
11.19
11.171
11.1705
11.1708
11.1706
11.1705
11.1705
11.1706
11.1708
11.1705
11.171
11.19
11.3229
12.7362
32.1744
646.053
672.74
55.0628
17.0386
12.087
11.3039
11.1803
11.1547
11.1529
11.1534
11.1536
11.1536
11.1534
11.1529
11.1547
11.1803
11.3039
12.087
17.0386
55.0628
672.741
698.453
71.0937
21.1542
13.3033
11.5874
11.2261
11.1552
11.1382
11.1358
11.1355
11.1355
11.1358
11.1382
11.1552
11.2261
11.5874
13.3033
21.1542
71.0935
698.453
723.136
85.8503
25.1369
14.6461
12.0431
11.3371
11.1684
11.1265
11.1183
11.1171
11.1171
11.1183
11.1265
11.1684
11.3371
12.0431
14.6461
25.1369
85.8503
723.136
746.743
101.867
29.2065
16.0658
12.5885
11.5234
11.2064
11.1273
11.105
11.1003
11.1003
11.105
11.1273
11.2064
11.5234
12.5885
16.0658
29.2065
101.867
746.743
769.31
118.432
33.3669
17.5406
13.1971
11.7624
11.283
11.1366
11.0944
11.0843
11.0843
11.0944
11.1366
11.283
11.7624
13.1971
17.5406
33.3669
118.433
769.31
790.728
134.968
37.5676
19.0511
13.8502
12.0431
11.3872
11.16
11.0918
11.0718
11.0718
11.0918
11.16
11.3872
12.0431
13.8502
19.0511
37.5677
134.968
790.728
810.982
151.251
41.7801
20.5852
14.5352
12.3571
11.5178
11.2031
11.0955
11.0625
11.0625
11.0955
11.2031
11.5178
12.3571
14.5352
20.5852
41.7802
151.251
810.982
829.955
167.079
45.9691
22.1303
15.2422
12.6968
11.6708
11.2604
11.1065
11.0594
11.0594
11.1065
11.2604
11.6708
12.6969
15.2422
22.1303
45.9692
167.079
829.955
847.653
182.401
50.1209
23.6797
15.9648
13.0568
11.8431
11.3324
11.129
11.0619
11.0619
11.129
11.3324
11.8431
13.0568
15.9648
23.6797
50.121
182.402
847.653
863.991
197.096
54.2105
25.2247
16.6968
13.4321
12.0315
11.4179
11.1609
11.0697
11.0698
11.1609
11.4179
12.0315
13.4322
16.6968
25.2248
54.2106
197.096
863.99
879.013
211.155
58.2321
26.7619
17.4347
13.8193
12.2335
11.5156
11.2021
11.0862
11.0862
11.2021
11.5156
12.2335
13.8193
17.4347
26.7619
58.2323
211.156
879.013
892.663
224.491
62.1651
28.2844
18.1745
14.2149
12.4467
11.6242
11.2528
11.1113
11.1113
11.2528
11.6242
12.4467
14.2149
18.1745
28.2845
62.1653
224.491
892.663
905.026
237.118
66.009
29.7908
18.9141
14.6169
12.6691
11.7427
11.3126
11.1446
11.1446
11.3126
11.7427
12.6691
14.6169
18.9141
29.7908
66.0092
237.119
905.026
916.068
248.971
69.7457
31.2753
19.6506
15.023
12.899
11.8698
11.381
11.1861
11.1861
11.381
11.8698
12.899
15.0231
19.6507
31.2755
69.7459
248.97
916.067
925.904
260.089
73.3781
32.7379
20.383
15.4319
13.1352
12.0048
11.4576
11.2357
11.2357
11.4576
12.0048
13.1352
15.4319
20.383
32.7379
73.3782
260.09
925.904
934.512
270.424
76.8906
34.1733
21.1087
15.8417
13.3762
12.1466
11.5418
11.293
11.293
11.5418
12.1466
13.3762
15.8418
21.1088
34.1735
76.8908
270.423
934.512
942.037
280.035
80.2892
35.5826
21.8277
16.2519
13.6211
12.2944
11.6331
11.3579
11.3579
11.6331
12.2944
13.6211
16.2519
21.8276
35.5825
80.2892
280.036
942.036
948.451
288.886
83.5602
36.9606
22.5374
16.6609
13.8691
12.4475
11.7309
11.4299
11.4299
11.7309
12.4475
13.8691
16.661
22.5375
36.9608
83.5604
288.885
948.45
953.925
297.051
86.7124
38.3098
23.2383
17.0685
14.1194
12.6053
11.8348
11.5085
11.5085
11.8348
12.6053
14.1194
17.0685
23.2383
38.3097
86.7123
297.052
953.924
958.416
304.506
89.734
39.6248
23.9282
17.4734
14.3712
12.7671
11.9442
11.5934
11.5934
11.9442
12.7671
14.3712
17.4735
23.9283
39.6251
89.7342
304.504
958.415
962.12
311.326
92.6356
40.9093
24.608
17.8757
14.6242
12.9325
12.0587
11.684
11.684
12.0587
12.9325
14.6242
17.8757
24.608
40.9092
92.6355
311.327
962.12
964.967
317.506
95.4074
42.1578
25.2754
18.2741
14.8776
13.1009
12.1777
11.78
11.78
12.1777
13.1009
14.8776
18.2742
25.2755
42.1581
95.4078
317.503
964.966
967.18
323.102
98.0618
43.3751
25.9318
18.669
15.1313
13.2719
12.3009
11.8809
11.8809
12.3009
13.2719
15.1313
18.669
25.9318
43.3749
98.0616
323.105
967.179
968.649
328.148
100.59
44.5553
26.5748
19.0592
15.3846
13.445
12.4277
11.9862
11.9862
12.4277
13.445
15.3846
19.0593
26.575
44.5556
100.59
328.144
968.648
969.635
332.653
103.005
45.7045
27.2064
19.4453
15.6374
13.62
12.5579
12.0955
12.0955
12.5579
13.62
15.6374
19.4452
27.2063
45.7042
103.005
332.657
969.634
969.97
336.705
105.299
46.8159
27.8239
19.826
15.8892
13.7964
12.691
12.2085
12.2085
12.691
13.7964
15.8892
19.8261
27.824
46.8163
105.3
336.7
969.969
969.834
340.242
107.488
47.8975
28.4297
20.2021
16.14
13.9741
12.8267
12.3248
12.3248
12.8267
13.9741
16.14
20.2021
28.4296
47.8972
107.488
340.246
969.833
969.425
343.403
109.561
48.9414
29.021
20.5725
16.3892
14.1525
12.9646
12.4441
12.4441
12.9646
14.1525
16.3892
20.5725
29.0212
48.9418
109.561
343.397
969.424
968.579
346.14
111.539
49.9569
29.6008
20.9379
16.637
14.3316
13.1045
12.5659
12.5659
13.1045
14.3316
16.637
20.9379
29.6006
49.9565
111.538
346.144
968.578
967.379
348.534
113.406
50.9352
30.1658
21.2973
16.8828
14.511
13.2461
12.69
12.69
13.2461
14.511
16.8828
21.2973
30.166
50.9357
113.406
348.528
967.378
965.891
350.552
115.188
51.8872
30.7196
21.6515
17.1267
14.6907
13.389
12.8161
12.8161
13.389
14.6907
17.1267
21.6515
30.7194
51.8867
115.187
350.556
965.89
964.155
352.265
116.864
52.8028
31.2587
21.9995
17.3684
14.8702
13.5331
12.944
12.944
13.5331
14.8702
17.3684
21.9995
31.2588
52.8033
116.865
352.259
964.155
962.205
353.658
118.465
53.6944
31.7868
22.3423
17.608
15.0495
13.6782
13.0733
13.0733
13.6782
15.0495
17.608
22.3422
31.7867
53.6937
118.463
353.662
962.203
960.073
354.766
119.965
54.5507
32.3005
22.6787
17.8451
15.2283
13.8239
13.2039
13.2039
13.8239
15.2283
17.8451
22.6787
32.3006
54.5512
119.966
354.761
960.074
957.789
355.615
121.399
55.3853
32.8038
23.0099
18.0798
15.4067
13.9702
13.3355
13.3355
13.9702
15.4067
18.0799
23.0099
32.8037
55.3845
121.397
355.618
957.788
955.381
356.175
122.736
56.186
33.293
23.3347
18.3118
15.5842
14.1168
13.468
13.468
14.1168
15.5842
18.3118
23.3346
33.2931
56.1865
122.737
356.171
955.382
952.87
356.557
124.016
56.9676
33.7724
23.6544
18.5414
15.761
14.2636
13.6011
13.6011
14.2636
15.761
18.5415
23.6544
33.7723
56.9667
124.013
356.559
952.868
950.286
356.613
125.204
57.7167
34.238
23.9676
18.7681
15.9367
14.4103
13.7346
13.7346
14.4103
15.9366
18.768
23.9676
34.2381
57.7173
125.206
356.611
950.287
947.636
356.52
126.342
58.4494
34.6947
24.2759
18.9922
16.1114
14.557
13.8684
13.8684
14.557
16.1114
18.9923
24.276
34.6946
58.4485
126.338
356.519
947.634
944.957
356.291
127.392
59.1511
35.1381
24.5779
19.2134
16.2848
14.7033
14.0024
14.0024
14.7033
16.2848
19.2133
24.5778
35.138
59.1518
127.395
356.29
944.959
942.244
355.82
128.406
59.8395
35.5733
24.8751
19.4319
16.4571
14.8493
14.1364
14.1364
14.8494
16.4572
19.432
24.8753
35.5733
59.8385
128.402
355.826
942.242
939.539
355.244
129.335
60.4986
35.9959
25.1662
19.6474
16.628
14.9948
14.2703
14.2703
14.9947
16.6279
19.6473
25.1659
35.9957
60.4995
129.339
355.236
939.541
936.821
354.505
130.251
61.149
36.4113
25.4527
19.8603
16.7975
15.1397
14.404
14.404
15.1398
16.7976
19.8605
25.453
36.4115
61.1479
130.246
354.511
936.818
934.145
353.722
131.099
61.7743
36.8149
25.7334
20.0701
16.9655
15.2839
14.5373
14.5373
15.2838
16.9653
20.0699
25.7329
36.8145
61.7751
131.104
353.714
934.147
931.466
352.872
131.987
62.3994
37.2125
26.0097
20.2774
17.132
15.4273
14.6702
14.6703
15.4274
17.1321
20.2777
26.0102
37.213
62.3985
131.98
352.877
931.463
928.859
352.024
132.869
63.0126
37.5999
26.2805
20.4816
17.2969
15.5699
14.8026
14.8025
15.5698
17.2967
20.4813
26.2799
37.5991
63.0133
132.875
352.019
928.862
926.333
351.164
133.826
63.6387
37.9833
26.5474
20.6833
17.4603
15.7116
14.9344
14.9344
15.7117
17.4605
20.6837
26.5481
37.9843
63.6383
133.819
351.166
926.33
923.871
350.422
134.84
64.2638
38.3588
26.8093
20.882
17.622
15.8522
15.0654
15.0654
15.8521
17.6217
20.8816
26.8085
38.3576
64.264
134.847
350.42
923.875
921.484
349.753
135.976
64.912
38.7329
27.0679
21.0783
17.7821
15.9919
15.1958
15.1959
15.992
17.7824
21.0789
27.0689
38.7345
64.9124
135.97
349.755
921.481
919.155
349.293
137.189
65.565
39.1016
27.3221
21.2718
17.9404
16.1304
15.3253
15.3252
16.1303
17.9402
21.2712
27.321
39.0999
65.5646
137.196
349.292
919.158
916.897
348.942
138.533
66.246
39.4712
27.5738
21.4631
18.0973
16.2679
15.4541
15.4541
16.2681
18.0977
21.4638
27.5752
39.4735
66.2475
138.527
348.943
916.893
914.693
348.851
139.937
66.9331
39.8374
27.8218
21.6517
18.2523
16.4041
15.5817
15.5816
16.404
18.252
21.651
27.8204
39.8351
66.9319
139.944
348.853
914.696
912.56
348.916
141.463
67.6495
40.2064
28.0679
21.8384
18.4059
16.5394
15.7086
15.7087
16.5396
18.4064
21.8394
28.0699
40.2097
67.6525
141.459
348.918
912.554
910.479
349.098
143.022
68.3711
40.5735
28.3112
22.0226
18.5577
16.6731
15.8342
15.8342
16.6729
18.5573
22.0217
28.3094
40.5706
68.3689
143.029
349.101
910.482
908.471
349.471
144.676
69.1203
40.9447
28.5532
22.2052
18.7081
16.806
15.9592
15.9593
16.8063
18.7088
22.2066
28.5558
40.9492
69.1254
144.675
349.481
908.463
906.512
349.99
146.342
69.873
41.315
28.793
22.3855
18.8567
16.9373
16.0827
16.0826
16.937
18.8562
22.3844
28.7908
41.3114
69.87
146.347
349.989
906.516
904.629
350.63
148.077
70.6511
41.6902
29.0321
22.5644
19.0041
17.0677
16.2056
16.2058
17.0682
19.0051
22.5663
29.0357
41.6964
70.6589
148.081
350.645
904.62
902.794
351.376
149.806
71.4301
42.065
29.2695
22.7414
19.1497
17.1965
16.3268
16.3268
17.1962
19.1491
22.74
29.2669
42.0608
71.4266
149.811
351.379
902.796
901.035
352.209
151.58
72.2317
42.4452
29.5067
22.9171
19.2942
17.3245
16.4477
16.4479
17.3252
19.2956
22.9198
29.5117
42.4537
72.2435
151.592
352.231
901.021
899.321
353.116
153.335
73.0313
42.8251
29.7426
23.0911
19.437
17.4508
16.5666
16.5665
17.4504
19.4362
23.0895
29.7397
42.8206
73.0281
153.339
353.127
899.32
897.684
354.081
155.115
73.8509
43.2104
29.9786
23.264
19.5787
17.5764
16.6853
16.6856
17.5774
19.5808
23.2679
29.9856
43.2222
73.8685
155.138
354.116
897.665
896.089
355.096
156.864
74.6654
43.5954
30.2137
23.4356
19.7188
17.7001
16.8017
16.8017
17.6998
19.7181
23.434
30.2107
43.5913
74.6644
156.873
355.121
896.082
894.571
356.143
158.624
75.4974
43.9856
30.4488
23.6061
19.858
17.8234
16.9184
16.9188
17.8249
19.861
23.6117
30.4589
44.0027
75.5236
158.662
356.199
894.542
893.092
357.219
160.343
76.3209
44.3755
30.6836
23.7754
19.9955
17.9447
17.0324
17.0324
17.9445
19.995
23.7741
30.681
44.3729