/*--------------------------------*- C++ -*----------------------------------*\
| =========                 |                                                 |
| \\      /  F ield         | OpenFOAM: The Open Source CFD Toolbox           |
|  \\    /   O peration     | Version:  2.1.0                                 |
|   \\  /    A nd           | Web:      www.OpenFOAM.org                      |
|    \\/     M anipulation  |                                                 |
\*---------------------------------------------------------------------------*/
FoamFile
{
    version     2.0;
    format      ascii;
    class       surfaceScalarField;
    location    "0.49";
    object      phi;
}
// * * * * * * * * * * * * * * * * * * * * * * * * * * * * * * * * * * * * * //

dimensions      [0 3 -1 0 0 0 0];

internalField   nonuniform List<scalar> 
12460
(
-2.60036e-05
-3.34857e-09
-2.59655e-05
-3.92455e-08
-2.59045e-05
-6.21665e-08
-2.58317e-05
-7.38214e-08
-2.57521e-05
-8.07062e-08
-2.56678e-05
-8.53292e-08
-2.55802e-05
-8.86643e-08
-2.54899e-05
-9.12875e-08
-2.53974e-05
-9.35018e-08
-2.53028e-05
-9.54962e-08
-2.52063e-05
-9.73708e-08
-2.5108e-05
-9.91889e-08
-2.50079e-05
-1.00989e-07
-2.49059e-05
-1.02793e-07
-2.48021e-05
-1.04626e-07
-2.46964e-05
-1.0649e-07
-2.45887e-05
-1.08398e-07
-2.44791e-05
-1.10342e-07
-2.43675e-05
-1.12329e-07
-2.42538e-05
-1.14346e-07
-2.4138e-05
-1.16401e-07
-2.40202e-05
-1.18479e-07
-2.39002e-05
-1.20593e-07
-2.3778e-05
-1.22747e-07
-2.36536e-05
-1.24915e-07
-2.3527e-05
-1.27122e-07
-2.33981e-05
-1.29456e-07
-2.32666e-05
-1.3189e-07
-2.31327e-05
-1.34404e-07
-2.29961e-05
-1.36988e-07
-2.28569e-05
-1.39655e-07
-2.27149e-05
-1.42404e-07
-2.257e-05
-1.45248e-07
-2.24221e-05
-1.4819e-07
-2.22712e-05
-1.5124e-07
-2.21171e-05
-1.54398e-07
-2.19597e-05
-1.57671e-07
-2.17989e-05
-1.61066e-07
-2.16346e-05
-1.64593e-07
-2.14666e-05
-1.68263e-07
-2.12947e-05
-1.72103e-07
-2.11188e-05
-1.7611e-07
-2.09387e-05
-1.8029e-07
-2.07542e-05
-1.84655e-07
-2.05652e-05
-1.89207e-07
-2.03714e-05
-1.93949e-07
-2.01726e-05
-1.98885e-07
-1.99687e-05
-2.04008e-07
-1.97596e-05
-2.09309e-07
-1.95449e-05
-2.14799e-07
-1.93245e-05
-2.20452e-07
-1.90985e-05
-2.2611e-07
-1.88665e-05
-2.32073e-07
-1.8628e-05
-2.38557e-07
-1.83827e-05
-2.4538e-07
-1.81303e-05
-2.52436e-07
-1.7871e-05
-2.59352e-07
-1.76051e-05
-2.65964e-07
-1.73327e-05
-2.72427e-07
-1.70537e-05
-2.78952e-07
-1.67681e-05
-2.85621e-07
-1.64757e-05
-2.92443e-07
-1.61763e-05
-2.99471e-07
-1.58695e-05
-3.06767e-07
-1.55552e-05
-3.14342e-07
-1.52329e-05
-3.22241e-07
-1.49024e-05
-3.30489e-07
-1.45633e-05
-3.39148e-07
-1.4215e-05
-3.48255e-07
-1.38572e-05
-3.57841e-07
-1.34892e-05
-3.67934e-07
-1.31106e-05
-3.78584e-07
-1.27208e-05
-3.89829e-07
-1.2319e-05
-4.01736e-07
-1.19046e-05
-4.14377e-07
-1.14768e-05
-4.27845e-07
-1.10345e-05
-4.42264e-07
-1.05767e-05
-4.57789e-07
-1.0102e-05
-4.74643e-07
-9.60881e-06
-4.93157e-07
-9.09504e-06
-5.13743e-07
-8.5581e-06
-5.36908e-07
-7.99476e-06
-5.63308e-07
-7.40105e-06
-5.93673e-07
-6.77243e-06
-6.28576e-07
-6.10418e-06
-6.68213e-07
-5.39191e-06
-7.12214e-07
-4.63291e-06
-7.5895e-07
-3.82848e-06
-8.04366e-07
-2.98872e-06
-8.39685e-07
-2.14158e-06
-8.47059e-07
-1.35006e-06
-7.91421e-07
-7.17217e-07
-6.32737e-07
-3.44651e-07
-3.72519e-07
-2.74109e-07
-7.06927e-08
-5.2919e-07
2.54793e-07
-1.42259e-06
8.93211e-07
-3.71637e-06
2.29377e-06
-9.2875e-06
5.57113e-06
1.54963e-05
-2.47838e-05
-3.13168e-05
-2.1933e-08
-3.12663e-05
-9.15022e-08
-3.1201e-05
-1.29096e-07
-3.11269e-05
-1.49613e-07
-3.1047e-05
-1.62188e-07
-3.09633e-05
-1.70685e-07
-3.08767e-05
-1.76827e-07
-3.07879e-05
-1.81648e-07
-3.06972e-05
-1.85715e-07
-3.06048e-05
-1.89369e-07
-3.05108e-05
-1.92806e-07
-3.04152e-05
-1.96134e-07
-3.03181e-05
-1.99436e-07
-3.02195e-05
-2.02749e-07
-3.01193e-05
-2.06126e-07
-3.00175e-05
-2.09569e-07
-2.9914e-05
-2.13104e-07
-2.98089e-05
-2.16713e-07
-2.97019e-05
-2.20411e-07
-2.95932e-05
-2.24177e-07
-2.94827e-05
-2.28023e-07
-2.93703e-05
-2.31919e-07
-2.92561e-05
-2.3587e-07
-2.91399e-05
-2.39901e-07
-2.90218e-05
-2.43921e-07
-2.8902e-05
-2.47935e-07
-2.87801e-05
-2.52151e-07
-2.86564e-05
-2.56506e-07
-2.85306e-05
-2.60964e-07
-2.84029e-05
-2.65524e-07
-2.82731e-05
-2.70205e-07
-2.81412e-05
-2.75013e-07
-2.80072e-05
-2.79965e-07
-2.78709e-05
-2.85068e-07
-2.77325e-05
-2.90338e-07
-2.75917e-05
-2.95776e-07
-2.74485e-05
-3.01398e-07
-2.73029e-05
-3.07218e-07
-2.71548e-05
-3.13248e-07
-2.7004e-05
-3.19483e-07
-2.68506e-05
-3.25967e-07
-2.66944e-05
-3.32708e-07
-2.65354e-05
-3.39721e-07
-2.63734e-05
-3.47027e-07
-2.62083e-05
-3.54636e-07
-2.604e-05
-3.62566e-07
-2.58684e-05
-3.7083e-07
-2.56933e-05
-3.7944e-07
-2.55144e-05
-3.88398e-07
-2.53318e-05
-3.9773e-07
-2.5145e-05
-4.07436e-07
-2.49541e-05
-4.17259e-07
-2.47592e-05
-4.27129e-07
-2.45608e-05
-4.37115e-07
-2.43592e-05
-4.47203e-07
-2.41543e-05
-4.57425e-07
-2.39461e-05
-4.67709e-07
-2.37343e-05
-4.77886e-07
-2.35189e-05
-4.87962e-07
-2.32999e-05
-4.98116e-07
-2.30771e-05
-5.08456e-07
-2.28507e-05
-5.19026e-07
-2.26204e-05
-5.29863e-07
-2.23862e-05
-5.41009e-07
-2.21481e-05
-5.52494e-07
-2.19061e-05
-5.64371e-07
-2.16599e-05
-5.76684e-07
-2.14097e-05
-5.89504e-07
-2.11551e-05
-6.02901e-07
-2.0896e-05
-6.16955e-07
-2.06323e-05
-6.31737e-07
-2.03636e-05
-6.47356e-07
-2.00896e-05
-6.63907e-07
-1.98098e-05
-6.81538e-07
-1.95239e-05
-7.00413e-07
-1.9231e-05
-7.20731e-07
-1.89306e-05
-7.42742e-07
-1.86218e-05
-7.66735e-07
-1.83034e-05
-7.93084e-07
-1.79743e-05
-8.22322e-07
-1.7633e-05
-8.55072e-07
-1.7278e-05
-8.92026e-07
-1.69074e-05
-9.34017e-07
-1.65192e-05
-9.8195e-07
-1.61114e-05
-1.03654e-06
-1.56817e-05
-1.09798e-06
-1.52287e-05
-1.16541e-06
-1.47518e-05
-1.23597e-06
-1.42531e-05
-1.30322e-06
-1.37387e-05
-1.35432e-06
-1.32208e-05
-1.36522e-06
-1.27178e-05
-1.29488e-06
-1.22652e-05
-1.08581e-06
-1.19435e-05
-6.94795e-07
-1.20145e-05
-3.33634e-10
-1.256e-05
7.99857e-07
-1.39376e-05
2.27065e-06
-1.667e-05
5.02619e-06
-2.1797e-05
1.06981e-05
2.65672e-05
-3.28679e-05
-3.42908e-05
-4.83002e-08
-3.42472e-05
-1.37217e-07
-3.41919e-05
-1.86578e-07
-3.41292e-05
-2.14478e-07
-3.40618e-05
-2.31746e-07
-3.39912e-05
-2.4339e-07
-3.39184e-05
-2.51715e-07
-3.38439e-05
-2.58214e-07
-3.3768e-05
-2.63617e-07
-3.36909e-05
-2.68452e-07
-3.36127e-05
-2.72947e-07
-3.35335e-05
-2.77296e-07
-3.34532e-05
-2.81579e-07
-3.33719e-05
-2.85889e-07
-3.32895e-05
-2.90271e-07
-3.32061e-05
-2.9476e-07
-3.31215e-05
-2.99368e-07
-3.30358e-05
-3.04098e-07
-3.29489e-05
-3.08953e-07
-3.28608e-05
-3.13933e-07
-3.27713e-05
-3.19046e-07
-3.26805e-05
-3.2428e-07
-3.25882e-05
-3.29638e-07
-3.24944e-05
-3.35161e-07
-3.23989e-05
-3.40787e-07
-3.23018e-05
-3.46389e-07
-3.22033e-05
-3.51997e-07
-3.21035e-05
-3.57613e-07
-3.20024e-05
-3.63278e-07
-3.19001e-05
-3.69033e-07
-3.17965e-05
-3.74904e-07
-3.16918e-05
-3.80903e-07
-3.15858e-05
-3.87044e-07
-3.14785e-05
-3.93339e-07
-3.13701e-05
-3.99796e-07
-3.12604e-05
-4.0642e-07
-3.11495e-05
-4.13217e-07
-3.10373e-05
-4.20202e-07
-3.0924e-05
-4.27403e-07
-3.08095e-05
-4.3478e-07
-3.06939e-05
-4.42378e-07
-3.05771e-05
-4.50208e-07
-3.04592e-05
-4.58272e-07
-3.03403e-05
-4.66594e-07
-3.02203e-05
-4.75176e-07
-3.00995e-05
-4.84029e-07
-2.99777e-05
-4.93162e-07
-2.9855e-05
-5.02584e-07
-2.97316e-05
-5.12289e-07
-2.96075e-05
-5.22269e-07
-2.94829e-05
-5.32472e-07
-2.93577e-05
-5.4284e-07
-2.9232e-05
-5.53245e-07
-2.9106e-05
-5.63494e-07
-2.89799e-05
-5.73576e-07
-2.88541e-05
-5.83557e-07
-2.87284e-05
-5.93613e-07
-2.86029e-05
-6.03708e-07
-2.84774e-05
-6.13706e-07
-2.83521e-05
-6.23659e-07
-2.82271e-05
-6.33612e-07
-2.81027e-05
-6.4361e-07
-2.79791e-05
-6.53665e-07
-2.78565e-05
-6.63773e-07
-2.77353e-05
-6.7395e-07
-2.76156e-05
-6.8421e-07
-2.74978e-05
-6.94578e-07
-2.73824e-05
-7.05079e-07
-2.72697e-05
-7.15754e-07
-2.71601e-05
-7.26672e-07
-2.70541e-05
-7.37902e-07
-2.6952e-05
-7.4955e-07
-2.68543e-05
-7.61712e-07
-2.67615e-05
-7.74562e-07
-2.66737e-05
-7.88312e-07
-2.65913e-05
-8.03216e-07
-2.65146e-05
-8.19619e-07
-2.64436e-05
-8.37919e-07
-2.63782e-05
-8.58597e-07
-2.63183e-05
-8.82362e-07
-2.62635e-05
-9.10037e-07
-2.62132e-05
-9.42461e-07
-2.61668e-05
-9.80573e-07
-2.61236e-05
-1.02532e-06
-2.60829e-05
-1.07745e-06
-2.60439e-05
-1.13711e-06
-2.60064e-05
-1.20312e-06
-2.59708e-05
-1.27181e-06
-2.59389e-05
-1.33529e-06
-2.59148e-05
-1.37862e-06
-2.59045e-05
-1.3757e-06
-2.59157e-05
-1.28391e-06
-2.59601e-05
-1.04156e-06
-2.60819e-05
-5.7309e-07
-2.62693e-05
1.87012e-07
-2.6784e-05
1.31451e-06
-2.78157e-05
3.30238e-06
-2.97465e-05
6.95697e-06
-3.32989e-05
1.42505e-05
3.11964e-05
-3.79281e-05
-3.69743e-05
-7.45098e-08
-3.69431e-05
-1.71086e-07
-3.69048e-05
-2.27601e-07
-3.68611e-05
-2.60929e-07
-3.68138e-05
-2.81771e-07
-3.67642e-05
-2.9568e-07
-3.67131e-05
-3.0546e-07
-3.6661e-05
-3.12946e-07
-3.66082e-05
-3.19028e-07
-3.65549e-05
-3.24375e-07
-3.65011e-05
-3.2925e-07
-3.6447e-05
-3.33912e-07
-3.63926e-05
-3.38444e-07
-3.63379e-05
-3.42982e-07
-3.6283e-05
-3.47568e-07
-3.62279e-05
-3.52259e-07
-3.61725e-05
-3.5705e-07
-3.61169e-05
-3.61959e-07
-3.60611e-05
-3.66975e-07
-3.60051e-05
-3.72106e-07
-3.5949e-05
-3.77361e-07
-3.58927e-05
-3.82729e-07
-3.58362e-05
-3.882e-07
-3.57796e-05
-3.9374e-07
-3.5723e-05
-3.99401e-07
-3.56662e-05
-4.05165e-07
-3.56092e-05
-4.10892e-07
-3.55521e-05
-4.16555e-07
-3.5495e-05
-4.22206e-07
-3.54379e-05
-4.27893e-07
-3.53809e-05
-4.33642e-07
-3.5324e-05
-4.39468e-07
-3.52673e-05
-4.45377e-07
-3.52108e-05
-4.51377e-07
-3.51547e-05
-4.57469e-07
-3.50989e-05
-4.6365e-07
-3.50437e-05
-4.69914e-07
-3.4989e-05
-4.76261e-07
-3.4935e-05
-4.82713e-07
-3.48818e-05
-4.89249e-07
-3.48296e-05
-4.95884e-07
-3.47784e-05
-5.02602e-07
-3.47284e-05
-5.09396e-07
-3.46798e-05
-5.16271e-07
-3.46328e-05
-5.23215e-07
-3.45877e-05
-5.30216e-07
-3.45445e-05
-5.37262e-07
-3.45037e-05
-5.44334e-07
-3.44654e-05
-5.51407e-07
-3.44301e-05
-5.58444e-07
-3.4398e-05
-5.65355e-07
-3.43694e-05
-5.72216e-07
-3.4344e-05
-5.79258e-07
-3.43218e-05
-5.8634e-07
-3.43028e-05
-5.93217e-07
-3.42871e-05
-5.99857e-07
-3.4275e-05
-6.06306e-07
-3.42667e-05
-6.12518e-07
-3.42625e-05
-6.184e-07
-3.42626e-05
-6.23969e-07
-3.42674e-05
-6.29224e-07
-3.42772e-05
-6.34165e-07
-3.42925e-05
-6.3882e-07
-3.43134e-05
-6.43195e-07
-3.43403e-05
-6.47298e-07
-3.43737e-05
-6.51148e-07
-3.44138e-05
-6.54771e-07
-3.44609e-05
-6.58208e-07
-3.45154e-05
-6.61529e-07
-3.45775e-05
-6.64826e-07
-3.46473e-05
-6.68212e-07
-3.47252e-05
-6.71859e-07
-3.48112e-05
-6.7596e-07
-3.49051e-05
-6.80778e-07
-3.5007e-05
-6.86639e-07
-3.51164e-05
-6.93934e-07
-3.5233e-05
-7.03163e-07
-3.53561e-05
-7.14905e-07
-3.54851e-05
-7.29741e-07
-3.5619e-05
-7.48553e-07
-3.57568e-05
-7.72353e-07
-3.58973e-05
-8.02048e-07
-3.60394e-05
-8.38599e-07
-3.61819e-05
-8.82904e-07
-3.63239e-05
-9.35534e-07
-3.64647e-05
-9.96328e-07
-3.66043e-05
-1.06362e-06
-3.67431e-05
-1.13304e-06
-3.68826e-05
-1.19582e-06
-3.70248e-05
-1.23639e-06
-3.71718e-05
-1.22881e-06
-3.73226e-05
-1.13314e-06
-3.74768e-05
-8.87326e-07
-3.76322e-05
-4.17704e-07
-3.77962e-05
3.51025e-07
-3.81e-05
1.61833e-06
-3.86635e-05
3.86588e-06
-3.9659e-05
7.95241e-06
-4.12702e-05
1.58617e-05
3.12615e-05
-4.13353e-05
-3.96751e-05
-9.39001e-08
-3.96614e-05
-1.87872e-07
-3.96467e-05
-2.45606e-07
-3.963e-05
-2.80911e-07
-3.96118e-05
-3.03245e-07
-3.95929e-05
-3.17876e-07
-3.95737e-05
-3.27967e-07
-3.95545e-05
-3.35384e-07
-3.95355e-05
-3.41219e-07
-3.9517e-05
-3.46133e-07
-3.94989e-05
-3.50484e-07
-3.94815e-05
-3.54501e-07
-3.94647e-05
-3.58323e-07
-3.94487e-05
-3.62069e-07
-3.94335e-05
-3.65818e-07
-3.94192e-05
-3.69603e-07
-3.94059e-05
-3.7343e-07
-3.93935e-05
-3.77292e-07
-3.93822e-05
-3.81184e-07
-3.93722e-05
-3.85096e-07
-3.93634e-05
-3.89037e-07
-3.93559e-05
-3.9299e-07
-3.935e-05
-3.96892e-07
-3.93458e-05
-4.00715e-07
-3.93434e-05
-4.04552e-07
-3.93427e-05
-4.08513e-07
-3.93437e-05
-4.12588e-07
-3.93462e-05
-4.16648e-07
-3.93503e-05
-4.20654e-07
-3.93561e-05
-4.2462e-07
-3.93637e-05
-4.28561e-07
-3.93731e-05
-4.32484e-07
-3.93845e-05
-4.36395e-07
-3.9398e-05
-4.4029e-07
-3.94136e-05
-4.44168e-07
-3.94315e-05
-4.48016e-07
-3.94518e-05
-4.51831e-07
-3.94747e-05
-4.55612e-07
-3.95002e-05
-4.59346e-07
-3.95285e-05
-4.63034e-07
-3.95597e-05
-4.66689e-07
-3.9594e-05
-4.70281e-07
-3.96316e-05
-4.73806e-07
-3.96725e-05
-4.77264e-07
-3.97169e-05
-4.8065e-07
-3.97649e-05
-4.83949e-07
-3.98168e-05
-4.87156e-07
-3.98725e-05
-4.90261e-07
-3.99323e-05
-4.93251e-07
-3.99962e-05
-4.96112e-07
-4.00642e-05
-4.98818e-07
-4.01364e-05
-5.01435e-07
-4.0213e-05
-5.04099e-07
-4.02939e-05
-5.06721e-07
-4.03793e-05
-5.09139e-07
-4.04691e-05
-5.11274e-07
-4.05634e-05
-5.131e-07
-4.06624e-05
-5.14586e-07
-4.07662e-05
-5.15703e-07
-4.08746e-05
-5.16481e-07
-4.09878e-05
-5.16947e-07
-4.11057e-05
-5.17137e-07
-4.12283e-05
-5.17086e-07
-4.13554e-05
-5.16826e-07
-4.1487e-05
-5.16399e-07
-4.16229e-05
-5.15844e-07
-4.17631e-05
-5.15214e-07
-4.19073e-05
-5.14574e-07
-4.20553e-05
-5.14011e-07
-4.22069e-05
-5.13635e-07
-4.2362e-05
-5.13579e-07
-4.25202e-05
-5.14017e-07
-4.26814e-05
-5.15156e-07
-4.28452e-05
-5.17272e-07
-4.30114e-05
-5.20693e-07
-4.31798e-05
-5.25813e-07
-4.335e-05
-5.33112e-07
-4.35219e-05
-5.43256e-07
-4.36951e-05
-5.56701e-07
-4.38694e-05
-5.74336e-07
-4.40446e-05
-5.97316e-07
-4.42203e-05
-6.26447e-07
-4.43964e-05
-6.62632e-07
-4.45727e-05
-7.06678e-07
-4.47492e-05
-7.59016e-07
-4.49263e-05
-8.19353e-07
-4.5104e-05
-8.85924e-07
-4.52828e-05
-9.54233e-07
-4.54631e-05
-1.0156e-06
-4.56443e-05
-1.05519e-06
-4.58239e-05
-1.04926e-06
-4.59947e-05
-9.62284e-07
-4.61419e-05
-7.40104e-07
-4.6246e-05
-3.13684e-07
-4.63109e-05
4.15956e-07
-4.63745e-05
1.68191e-06
-4.64528e-05
3.94416e-06
-4.65455e-05
8.04518e-06
-4.63285e-05
1.56447e-05
2.84368e-05
-4.35038e-05
-4.25287e-05
-9.97165e-08
-4.25374e-05
-1.82762e-07
-4.25517e-05
-2.35024e-07
-4.25686e-05
-2.67696e-07
-4.25873e-05
-2.88377e-07
-4.26073e-05
-3.01587e-07
-4.26287e-05
-3.10361e-07
-4.26514e-05
-3.16397e-07
-4.26756e-05
-3.20824e-07
-4.27012e-05
-3.24243e-07
-4.27284e-05
-3.27047e-07
-4.27572e-05
-3.29426e-07
-4.27877e-05
-3.31542e-07
-4.28199e-05
-3.33507e-07
-4.2854e-05
-3.3543e-07
-4.289e-05
-3.37322e-07
-4.29279e-05
-3.39195e-07
-4.29678e-05
-3.41027e-07
-4.30098e-05
-3.42817e-07
-4.3054e-05
-3.44548e-07
-4.31004e-05
-3.46228e-07
-4.31492e-05
-3.47892e-07
-4.32003e-05
-3.49362e-07
-4.32539e-05
-3.50691e-07
-4.33099e-05
-3.52073e-07
-4.33685e-05
-3.53496e-07
-4.34297e-05
-3.54951e-07
-4.34935e-05
-3.56358e-07
-4.356e-05
-3.57681e-07
-4.36291e-05
-3.58918e-07
-4.37011e-05
-3.60084e-07
-4.37758e-05
-3.61184e-07
-4.38534e-05
-3.62232e-07
-4.39339e-05
-3.63227e-07
-4.40173e-05
-3.64173e-07
-4.41036e-05
-3.65059e-07
-4.41929e-05
-3.65893e-07
-4.42852e-05
-3.66683e-07
-4.43804e-05
-3.67424e-07
-4.44787e-05
-3.68102e-07
-4.45799e-05
-3.68751e-07
-4.4684e-05
-3.69364e-07
-4.47911e-05
-3.69938e-07
-4.4901e-05
-3.70482e-07
-4.50138e-05
-3.71e-07
-4.51294e-05
-3.7149e-07
-4.52476e-05
-3.71951e-07
-4.53685e-05
-3.72384e-07
-4.5492e-05
-3.72788e-07
-4.56179e-05
-3.73154e-07
-4.57461e-05
-3.73486e-07
-4.58765e-05
-3.7384e-07
-4.6009e-05
-3.74319e-07
-4.61436e-05
-3.74865e-07
-4.628e-05
-3.75371e-07
-4.64181e-05
-3.75752e-07
-4.65578e-05
-3.75928e-07
-4.6699e-05
-3.75847e-07
-4.68416e-05
-3.75507e-07
-4.69854e-05
-3.74943e-07
-4.71304e-05
-3.74179e-07
-4.72764e-05
-3.73249e-07
-4.74234e-05
-3.72173e-07
-4.75712e-05
-3.70968e-07
-4.77198e-05
-3.69676e-07
-4.78691e-05
-3.6831e-07
-4.80191e-05
-3.66909e-07
-4.81698e-05
-3.65532e-07
-4.83211e-05
-3.64246e-07
-4.8473e-05
-3.63145e-07
-4.86256e-05
-3.62357e-07
-4.87788e-05
-3.62029e-07
-4.89328e-05
-3.62354e-07
-4.90876e-05
-3.63602e-07
-4.92432e-05
-3.66108e-07
-4.93997e-05
-3.70258e-07
-4.95572e-05
-3.76517e-07
-4.97157e-05
-3.85545e-07
-4.98753e-05
-3.97838e-07
-5.00362e-05
-4.14059e-07
-5.01989e-05
-4.35232e-07
-5.03636e-05
-4.62324e-07
-5.05304e-05
-4.96243e-07
-5.06998e-05
-5.37757e-07
-5.08719e-05
-5.87233e-07
-5.10472e-05
-6.44361e-07
-5.12259e-05
-7.07553e-07
-5.14078e-05
-7.72622e-07
-5.1592e-05
-8.31515e-07
-5.17763e-05
-8.7108e-07
-5.19548e-05
-8.70887e-07
-5.2116e-05
-8.01157e-07
-5.2236e-05
-6.20236e-07
-5.22868e-05
-2.62906e-07
-5.2251e-05
3.80105e-07
-5.20984e-05
1.52927e-06
-5.17486e-05
3.59437e-06
-5.10313e-05
7.32788e-06
-4.93302e-05
1.39435e-05
2.38462e-05
-4.47396e-05
-4.54754e-05
-9.01721e-08
-4.55082e-05
-1.53899e-07
-4.5552e-05
-1.95172e-07
-4.56022e-05
-2.21395e-07
-4.56568e-05
-2.37789e-07
-4.57145e-05
-2.47845e-07
-4.57748e-05
-2.54077e-07
-4.58373e-05
-2.57865e-07
-4.59019e-05
-2.60204e-07
-4.59685e-05
-2.61618e-07
-4.60371e-05
-2.62446e-07
-4.61077e-05
-2.6285e-07
-4.61803e-05
-2.62978e-07
-4.62548e-05
-2.62953e-07
-4.63314e-05
-2.62912e-07
-4.64099e-05
-2.62853e-07
-4.64903e-05
-2.62788e-07
-4.65727e-05
-2.62692e-07
-4.66571e-05
-2.62574e-07
-4.67433e-05
-2.62414e-07
-4.68315e-05
-2.62228e-07
-4.69215e-05
-2.62047e-07
-4.70133e-05
-2.61717e-07
-4.71071e-05
-2.61154e-07
-4.72029e-05
-2.6049e-07
-4.73009e-05
-2.59788e-07
-4.7401e-05
-2.59092e-07
-4.75033e-05
-2.58368e-07
-4.76077e-05
-2.57596e-07
-4.77141e-05
-2.56769e-07
-4.78226e-05
-2.55917e-07
-4.79331e-05
-2.55045e-07
-4.80455e-05
-2.54185e-07
-4.81598e-05
-2.53336e-07
-4.82758e-05
-2.52519e-07
-4.83936e-05
-2.51722e-07
-4.85129e-05
-2.50972e-07
-4.86338e-05
-2.50259e-07
-4.87561e-05
-2.4961e-07
-4.88797e-05
-2.49016e-07
-4.90045e-05
-2.485e-07
-4.91304e-05
-2.4806e-07
-4.92572e-05
-2.47702e-07
-4.93849e-05
-2.47428e-07
-4.95133e-05
-2.47245e-07
-4.96423e-05
-2.47145e-07
-4.97718e-05
-2.47125e-07
-4.99018e-05
-2.47174e-07
-5.0032e-05
-2.47303e-07
-5.01624e-05
-2.47482e-07
-5.0293e-05
-2.47732e-07
-5.04236e-05
-2.48072e-07
-5.05541e-05
-2.48604e-07
-5.06846e-05
-2.49288e-07
-5.08148e-05
-2.49997e-07
-5.09448e-05
-2.50642e-07
-5.10745e-05
-2.51087e-07
-5.12039e-05
-2.51245e-07
-5.13332e-05
-2.5112e-07
-5.14622e-05
-2.50751e-07
-5.15911e-05
-2.50152e-07
-5.17198e-05
-2.49343e-07
-5.18484e-05
-2.48324e-07
-5.1977e-05
-2.47094e-07
-5.21056e-05
-2.45679e-07
-5.22344e-05
-2.44084e-07
-5.23635e-05
-2.42331e-07
-5.24931e-05
-2.4046e-07
-5.26232e-05
-2.38528e-07
-5.2754e-05
-2.36617e-07
-5.28857e-05
-2.34836e-07
-5.30185e-05
-2.33324e-07
-5.31526e-05
-2.32261e-07
-5.32882e-05
-2.31899e-07
-5.34255e-05
-2.32578e-07
-5.35647e-05
-2.34671e-07
-5.37061e-05
-2.38622e-07
-5.38501e-05
-2.44914e-07
-5.39969e-05
-2.54258e-07
-5.41466e-05
-2.67483e-07
-5.42994e-05
-2.85408e-07
-5.44556e-05
-3.08892e-07
-5.46158e-05
-3.38744e-07
-5.47803e-05
-3.75719e-07
-5.49497e-05
-4.20166e-07
-5.51244e-05
-4.7183e-07
-5.53044e-05
-5.29591e-07
-5.54889e-05
-5.89981e-07
-5.56761e-05
-6.45926e-07
-5.58621e-05
-6.86602e-07
-5.60385e-05
-6.95812e-07
-5.61905e-05
-6.50282e-07
-5.62898e-05
-5.21851e-07
-5.62993e-05
-2.54117e-07
-5.6175e-05
2.55235e-07
-5.58368e-05
1.19057e-06
-5.51225e-05
2.87953e-06
-5.37227e-05
5.92731e-06
-5.0913e-05
1.11329e-05
1.82309e-05
-4.5299e-05
-4.81509e-05
-6.81499e-08
-4.82005e-05
-1.08037e-07
-4.82636e-05
-1.35821e-07
-4.83353e-05
-1.53458e-07
-4.84126e-05
-1.6425e-07
-4.84935e-05
-1.70552e-07
-4.85773e-05
-1.74053e-07
-4.86631e-05
-1.75735e-07
-4.87506e-05
-1.76313e-07
-4.88397e-05
-1.76187e-07
-4.89302e-05
-1.756e-07
-4.9022e-05
-1.74661e-07
-4.91151e-05
-1.7347e-07
-4.92095e-05
-1.7217e-07
-4.93052e-05
-1.70924e-07
-4.94019e-05
-1.69707e-07
-4.94998e-05
-1.68519e-07
-4.95988e-05
-1.67334e-07
-4.96989e-05
-1.66155e-07
-4.98e-05
-1.64964e-07
-4.99022e-05
-1.63759e-07
-5.00055e-05
-1.62464e-07
-5.01098e-05
-1.61162e-07
-5.02148e-05
-1.59875e-07
-5.03206e-05
-1.58554e-07
-5.04269e-05
-1.57221e-07
-5.05339e-05
-1.55946e-07
-5.06414e-05
-1.54714e-07
-5.07494e-05
-1.53516e-07
-5.08578e-05
-1.52328e-07
-5.09665e-05
-1.51204e-07
-5.10755e-05
-1.50125e-07
-5.11846e-05
-1.49141e-07
-5.12938e-05
-1.4823e-07
-5.14031e-05
-1.47432e-07
-5.15124e-05
-1.46704e-07
-5.16216e-05
-1.46098e-07
-5.17307e-05
-1.45569e-07
-5.18396e-05
-1.45165e-07
-5.19483e-05
-1.44864e-07
-5.20568e-05
-1.44676e-07
-5.2165e-05
-1.44593e-07
-5.2273e-05
-1.44612e-07
-5.23806e-05
-1.44734e-07
-5.2488e-05
-1.44954e-07
-5.2595e-05
-1.45257e-07
-5.27018e-05
-1.4563e-07
-5.28084e-05
-1.46057e-07
-5.29147e-05
-1.46535e-07
-5.30208e-05
-1.47041e-07
-5.31268e-05
-1.47581e-07
-5.32326e-05
-1.48155e-07
-5.33385e-05
-1.48867e-07
-5.34443e-05
-1.49723e-07
-5.35501e-05
-1.50556e-07
-5.3656e-05
-1.51279e-07
-5.37621e-05
-1.51713e-07
-5.38685e-05
-1.51722e-07
-5.39753e-05
-1.5134e-07
-5.40827e-05
-1.50628e-07
-5.41906e-05
-1.49603e-07
-5.42992e-05
-1.4827e-07
-5.44086e-05
-1.46627e-07
-5.45188e-05
-1.44669e-07
-5.46301e-05
-1.4239e-07
-5.47426e-05
-1.39794e-07
-5.48564e-05
-1.36898e-07
-5.49716e-05
-1.33725e-07
-5.50884e-05
-1.30316e-07
-5.5207e-05
-1.26744e-07
-5.53277e-05
-1.23102e-07
-5.54505e-05
-1.1952e-07
-5.55757e-05
-1.16162e-07
-5.57036e-05
-1.13255e-07
-5.58344e-05
-1.11152e-07
-5.59683e-05
-1.10205e-07
-5.61056e-05
-1.10816e-07
-5.62466e-05
-1.13437e-07
-5.63917e-05
-1.1882e-07
-5.65411e-05
-1.27792e-07
-5.6695e-05
-1.41204e-07
-5.68537e-05
-1.59881e-07
-5.70179e-05
-1.84395e-07
-5.71878e-05
-2.15554e-07
-5.73641e-05
-2.5376e-07
-5.75469e-05
-2.98797e-07
-5.77359e-05
-3.5026e-07
-5.79297e-05
-4.05929e-07
-5.81254e-05
-4.59701e-07
-5.83178e-05
-5.03606e-07
-5.84966e-05
-5.26118e-07
-5.8644e-05
-5.11534e-07
-5.87324e-05
-4.41585e-07
-5.87134e-05
-2.80451e-07
-5.85188e-05
5.41687e-08
-5.80353e-05
7.00894e-07
-5.70364e-05
1.87362e-06
-5.51152e-05
3.99738e-06
-5.15357e-05
7.54221e-06
1.20564e-05
-4.53748e-05
-5.01904e-05
-3.45424e-08
-5.02473e-05
-5.3824e-08
-5.0318e-05
-6.77872e-08
-5.03974e-05
-7.6561e-08
-5.04824e-05
-8.18261e-08
-5.05705e-05
-8.48485e-08
-5.06606e-05
-8.63648e-08
-5.07519e-05
-8.68444e-08
-5.08438e-05
-8.6717e-08
-5.09361e-05
-8.61818e-08
-5.10286e-05
-8.53718e-08
-5.11212e-05
-8.43152e-08
-5.12138e-05
-8.30508e-08
-5.13064e-05
-8.17226e-08
-5.13989e-05
-8.05557e-08
-5.14912e-05
-7.94681e-08
-5.15833e-05
-7.84366e-08
-5.16752e-05
-7.7436e-08
-5.17669e-05
-7.6461e-08
-5.18583e-05
-7.5494e-08
-5.19494e-05
-7.45228e-08
-5.20403e-05
-7.34747e-08
-5.21309e-05
-7.24922e-08
-5.22209e-05
-7.16854e-08
-5.23104e-05
-7.09727e-08
-5.23992e-05
-7.03034e-08
-5.24875e-05
-6.97093e-08
-5.2575e-05
-6.91819e-08
-5.26619e-05
-6.86935e-08
-5.27482e-05
-6.82068e-08
-5.28338e-05
-6.77808e-08
-5.29188e-05
-6.74021e-08
-5.30032e-05
-6.70979e-08
-5.3087e-05
-6.68515e-08
-5.31703e-05
-6.66881e-08
-5.32531e-05
-6.65737e-08
-5.33354e-05
-6.65357e-08
-5.34172e-05
-6.65344e-08
-5.34987e-05
-6.66241e-08
-5.35799e-05
-6.67527e-08
-5.36607e-05
-6.69524e-08
-5.37414e-05
-6.72007e-08
-5.38219e-05
-6.74856e-08
-5.39024e-05
-6.78179e-08
-5.39828e-05
-6.8179e-08
-5.40633e-05
-6.85567e-08
-5.41439e-05
-6.89337e-08
-5.42247e-05
-6.93077e-08
-5.43058e-05
-6.96391e-08
-5.43873e-05
-6.99281e-08
-5.44692e-05
-7.01596e-08
-5.45517e-05
-7.03443e-08
-5.46349e-05
-7.05754e-08
-5.47187e-05
-7.09717e-08
-5.48032e-05
-7.12572e-08
-5.48885e-05
-7.13924e-08
-5.49747e-05
-7.11561e-08
-5.5062e-05
-7.03085e-08
-5.51504e-05
-6.89505e-08
-5.52402e-05
-6.71861e-08
-5.53313e-05
-6.50391e-08
-5.54239e-05
-6.25028e-08
-5.55181e-05
-5.95693e-08
-5.5614e-05
-5.62241e-08
-5.57116e-05
-5.24525e-08
-5.58112e-05
-4.82491e-08
-5.59129e-05
-4.36237e-08
-5.60167e-05
-3.8589e-08
-5.6123e-05
-3.31768e-08
-5.62318e-05
-2.74439e-08
-5.63434e-05
-2.14732e-08
-5.64579e-05
-1.53786e-08
-5.65756e-05
-9.32541e-09
-5.66966e-05
-3.52664e-09
-5.68213e-05
1.75158e-09
-5.695e-05
6.13687e-09
-5.70831e-05
9.20076e-09
-5.72206e-05
1.05173e-08
-5.73631e-05
9.41132e-09
-5.75109e-05
5.14341e-09
-5.76646e-05
-2.99737e-09
-5.78247e-05
-1.60226e-08
-5.79918e-05
-3.43652e-08
-5.81663e-05
-5.88762e-08
-5.83488e-05
-9.01542e-08
-5.85396e-05
-1.27889e-07
-5.87384e-05
-1.72431e-07
-5.89428e-05
-2.23863e-07
-5.91499e-05
-2.76303e-07
-5.93536e-05
-3.25209e-07
-5.95427e-05
-3.6393e-07
-5.96983e-05
-3.84546e-07
-5.97925e-05
-3.77647e-07
-5.97755e-05
-3.29404e-07
-5.95615e-05
-1.93022e-07
-5.89994e-05
1.0506e-07
-5.78336e-05
6.72028e-07
-5.55912e-05
1.71318e-06
-5.15469e-05
3.44682e-06
5.58091e-06
-4.51312e-05
-5.11853e-05
4.90539e-09
-5.12414e-05
1.63494e-09
-5.13107e-05
7.89666e-10
-5.13882e-05
4.09252e-10
-5.14706e-05
-1.31377e-11
-5.15554e-05
-5.29008e-10
-5.16413e-05
-9.93816e-10
-5.17274e-05
-1.18641e-09
-5.18132e-05
-1.32644e-09
-5.18984e-05
-1.38115e-09
-5.19828e-05
-1.35923e-09
-5.20663e-05
-1.1975e-09
-5.21489e-05
-8.48195e-10
-5.22305e-05
-4.36541e-10
-5.23111e-05
-3.22121e-10
-5.23906e-05
-2.94063e-10
-5.24691e-05
-3.06719e-10
-5.25465e-05
-3.42394e-10
-5.2623e-05
-3.79677e-10
-5.26984e-05
-4.0886e-10
-5.27729e-05
-4.05037e-10
-5.28464e-05
-3.52642e-10
-5.2919e-05
-3.32159e-10
-5.29907e-05
-4.10814e-10
-5.30616e-05
-5.33467e-10
-5.31317e-05
-6.7514e-10
-5.32011e-05
-8.37225e-10
-5.32698e-05
-1.05088e-09
-5.33379e-05
-1.23785e-09
-5.34053e-05
-1.35271e-09
-5.34723e-05
-1.45956e-09
-5.35389e-05
-1.5904e-09
-5.3605e-05
-1.7235e-09
-5.36707e-05
-1.87062e-09
-5.37362e-05
-2.01365e-09
-5.38015e-05
-2.17531e-09
-5.38665e-05
-2.32266e-09
-5.39315e-05
-2.47164e-09
-5.39965e-05
-2.63554e-09
-5.40614e-05
-2.78461e-09
-5.41264e-05
-2.93361e-09
-5.41916e-05
-3.07145e-09
-5.4257e-05
-3.18578e-09
-5.43226e-05
-3.27574e-09
-5.43886e-05
-3.33233e-09
-5.44549e-05
-3.33773e-09
-5.45218e-05
-3.2776e-09
-5.45891e-05
-3.14639e-09
-5.46571e-05
-2.90292e-09
-5.47257e-05
-2.54573e-09
-5.47951e-05
-2.05453e-09
-5.48654e-05
-1.4301e-09
-5.49366e-05
-6.83381e-10
-5.50087e-05
-2.97346e-10
-5.50817e-05
3.69521e-10
-5.51558e-05
1.18594e-09
-5.52308e-05
2.37846e-09
-5.53072e-05
4.45388e-09
-5.53849e-05
7.15674e-09
-5.54642e-05
1.03102e-08
-5.55449e-05
1.38994e-08
-5.56273e-05
1.79451e-08
-5.57114e-05
2.24694e-08
-5.57973e-05
2.74997e-08
-5.58851e-05
3.30521e-08
-5.59749e-05
3.91387e-08
-5.6067e-05
4.57644e-08
-5.61613e-05
5.29256e-08
-5.62582e-05
6.05998e-08
-5.63577e-05
6.87439e-08
-5.646e-05
7.72894e-08
-5.65654e-05
8.61414e-08
-5.6674e-05
9.51391e-08
-5.67862e-05
1.04088e-07
-5.69021e-05
1.12809e-07
-5.70222e-05
1.20966e-07
-5.71468e-05
1.28118e-07
-5.72762e-05
1.33822e-07
-5.74108e-05
1.37452e-07
-5.75511e-05
1.38287e-07
-5.76974e-05
1.3572e-07
-5.78507e-05
1.28997e-07
-5.80111e-05
1.17394e-07
-5.81794e-05
1.00153e-07
-5.83559e-05
7.66555e-08
-5.85402e-05
4.62405e-08
-5.87329e-05
9.6394e-09
-5.89304e-05
-3.7627e-08
-5.91307e-05
-8.86337e-08
-5.93271e-05
-1.43084e-07
-5.95084e-05
-1.99135e-07
-5.96566e-05
-2.55625e-07
-5.97425e-05
-3.14531e-07
-5.97204e-05
-3.78654e-07
-5.95006e-05
-4.46059e-07
-5.89221e-05
-5.14031e-07
-5.77047e-05
-5.92174e-07
-5.53486e-05
-6.93706e-07
-5.1122e-05
-8.31892e-07
-9.57847e-07
-4.46304e-05
-5.07732e-05
4.28849e-08
-5.08277e-05
5.75212e-08
-5.08958e-05
7.01238e-08
-5.09724e-05
7.81585e-08
-5.1054e-05
8.27419e-08
-5.11385e-05
8.50163e-08
-5.12243e-05
8.59327e-08
-5.13107e-05
8.6135e-08
-5.13969e-05
8.58809e-08
-5.14827e-05
8.53729e-08
-5.1568e-05
8.47529e-08
-5.16524e-05
8.41219e-08
-5.1736e-05
8.3569e-08
-5.18186e-05
8.29753e-08
-5.19004e-05
8.21958e-08
-5.19812e-05
8.13105e-08
-5.20611e-05
8.03843e-08
-5.21402e-05
7.9432e-08
-5.22183e-05
7.84903e-08
-5.22955e-05
7.75645e-08
-5.23719e-05
7.66875e-08
-5.24474e-05
7.58489e-08
-5.2522e-05
7.50134e-08
-5.25957e-05
7.41363e-08
-5.26688e-05
7.32582e-08
-5.2741e-05
7.23833e-08
-5.28125e-05
7.15203e-08
-5.28834e-05
7.06746e-08
-5.29536e-05
6.9906e-08
-5.30233e-05
6.92186e-08
-5.30924e-05
6.85978e-08
-5.31609e-05
6.79944e-08
-5.3229e-05
6.74429e-08
-5.32967e-05
6.69203e-08
-5.3364e-05
6.64597e-08
-5.3431e-05
6.6025e-08
-5.34977e-05
6.56641e-08
-5.35641e-05
6.53316e-08
-5.36304e-05
6.50844e-08
-5.36966e-05
6.48725e-08
-5.37628e-05
6.47423e-08
-5.38289e-05
6.46798e-08
-5.38951e-05
6.46863e-08
-5.39615e-05
6.47911e-08
-5.4028e-05
6.4993e-08
-5.40948e-05
6.53105e-08
-5.41618e-05
6.57569e-08
-5.42293e-05
6.6347e-08
-5.42972e-05
6.71047e-08
-5.43656e-05
6.80421e-08
-5.44345e-05
6.91647e-08
-5.45041e-05
7.0476e-08
-5.45742e-05
7.18863e-08
-5.46452e-05
7.32712e-08
-5.47171e-05
7.49278e-08
-5.47901e-05
7.68577e-08
-5.48641e-05
7.93033e-08
-5.49392e-05
8.25478e-08
-5.50154e-05
8.64543e-08
-5.50927e-05
9.09117e-08
-5.51713e-05
9.59129e-08
-5.52512e-05
1.01475e-07
-5.53326e-05
1.07621e-07
-5.54155e-05
1.14384e-07
-5.55001e-05
1.21784e-07
-5.55864e-05
1.29839e-07
-5.56746e-05
1.38569e-07
-5.57648e-05
1.47989e-07
-5.58572e-05
1.58087e-07
-5.59518e-05
1.68831e-07
-5.60489e-05
1.8018e-07
-5.61487e-05
1.92054e-07
-5.62514e-05
2.04326e-07
-5.63571e-05
2.16837e-07
-5.64663e-05
2.294e-07
-5.65791e-05
2.41721e-07
-5.66958e-05
2.5342e-07
-5.68168e-05
2.64063e-07
-5.69425e-05
2.7309e-07
-5.70734e-05
2.79884e-07
-5.72099e-05
2.83829e-07
-5.73525e-05
2.8421e-07
-5.75016e-05
2.80251e-07
-5.76578e-05
2.71216e-07
-5.78213e-05
2.56346e-07
-5.79919e-05
2.34467e-07
-5.81678e-05
2.04676e-07
-5.83493e-05
1.65216e-07
-5.85306e-05
1.16697e-07
-5.87032e-05
5.67967e-08
-5.88563e-05
-1.51394e-08
-5.89739e-05
-1.03165e-07
-5.90274e-05
-2.22313e-07
-5.89688e-05
-3.9395e-07
-5.87142e-05
-6.52393e-07
-5.81082e-05
-1.06618e-06
-5.68722e-05
-1.76847e-06
-5.45185e-05
-2.9816e-06
-5.03446e-05
-4.93517e-06
-7.27406e-06
-4.39592e-05
-4.9194e-05
7.19943e-08
-4.92453e-05
1.11702e-07
-4.93107e-05
1.38377e-07
-4.93852e-05
1.55484e-07
-4.94656e-05
1.65803e-07
-4.95495e-05
1.71671e-07
-4.96358e-05
1.74894e-07
-4.97235e-05
1.76508e-07
-4.98122e-05
1.77203e-07
-4.99015e-05
1.77295e-07
-4.99912e-05
1.77109e-07
-5.00813e-05
1.76741e-07
-5.01715e-05
1.76331e-07
-5.02618e-05
1.75807e-07
-5.03521e-05
1.75111e-07
-5.04426e-05
1.74279e-07
-5.0533e-05
1.7337e-07
-5.06235e-05
1.72398e-07
-5.07139e-05
1.71399e-07
-5.08041e-05
1.70378e-07
-5.08943e-05
1.69362e-07
-5.09842e-05
1.68337e-07
-5.10739e-05
1.67289e-07
-5.11634e-05
1.66184e-07
-5.12526e-05
1.6505e-07
-5.13414e-05
1.63885e-07
-5.14299e-05
1.62703e-07
-5.15181e-05
1.61531e-07
-5.16058e-05
1.60423e-07
-5.16932e-05
1.59373e-07
-5.17801e-05
1.58366e-07
-5.18665e-05
1.57375e-07
-5.19525e-05
1.56422e-07
-5.20381e-05
1.55501e-07
-5.21231e-05
1.54636e-07
-5.22077e-05
1.53815e-07
-5.22919e-05
1.53063e-07
-5.23755e-05
1.52358e-07
-5.24588e-05
1.51761e-07