/*--------------------------------*- C++ -*----------------------------------*\
| =========                 |                                                 |
| \\      /  F ield         | OpenFOAM: The Open Source CFD Toolbox           |
|  \\    /   O peration     | Version:  2.1.0                                 |
|   \\  /    A nd           | Web:      www.OpenFOAM.org                      |
|    \\/     M anipulation  |                                                 |
\*---------------------------------------------------------------------------*/
FoamFile
{
    version     2.0;
    format      ascii;
    class       volScalarField;
    location    "0.49";
    object      rho;
}
// * * * * * * * * * * * * * * * * * * * * * * * * * * * * * * * * * * * * * //

dimensions      [1 -3 0 0 0 0 0];

internalField   nonuniform List<scalar> 
6400
(
945.918
945.876
945.834
945.792
945.752
945.712
945.673
945.636
945.599
945.563
945.527
945.493
945.46
945.428
945.396
945.366
945.336
945.307
945.28
945.253
945.227
945.202
945.177
945.154
945.132
945.11
945.089
945.069
945.05
945.032
945.014
944.998
944.982
944.967
944.953
944.939
944.926
944.914
944.902
944.892
944.881
944.872
944.863
944.855
944.847
944.84
944.833
944.827
944.822
944.816
944.812
944.808
944.804
944.801
944.798
944.795
944.793
944.791
944.79
944.789
944.788
944.787
944.787
944.787
944.787
944.788
944.789
944.79
944.791
944.793
944.794
944.797
944.799
944.802
944.805
944.809
944.813
944.817
944.823
944.828
944.835
944.842
944.851
944.86
944.872
944.887
944.905
944.929
944.961
945.008
945.081
945.207
945.448
945.932
946.554
945.228
944.574
944.555
944.555
944.555
946.344
946.293
946.24
946.188
946.136
946.085
946.034
945.985
945.936
945.889
945.842
945.796
945.751
945.707
945.664
945.622
945.581
945.541
945.502
945.464
945.427
945.391
945.357
945.323
945.29
945.258
945.227
945.197
945.168
945.14
945.114
945.088
945.063
945.04
945.017
944.996
944.975
944.955
944.936
944.919
944.902
944.886
944.871
944.857
944.843
944.831
944.819
944.808
944.797
944.788
944.779
944.771
944.763
944.756
944.75
944.744
944.739
944.734
944.729
944.725
944.722
944.718
944.715
944.713
944.71
944.708
944.706
944.704
944.703
944.702
944.7
944.699
944.698
944.697
944.697
944.696
944.696
944.695
944.695
944.695
944.694
944.694
944.694
944.695
944.695
944.696
944.697
944.697
944.698
944.699
944.698
944.696
944.687
944.668
944.632
944.582
944.556
944.555
944.555
944.555
946.875
946.816
946.752
946.689
946.626
946.563
946.5
946.439
946.378
946.319
946.26
946.202
946.145
946.089
946.034
945.98
945.927
945.875
945.824
945.774
945.725
945.677
945.631
945.585
945.54
945.496
945.454
945.413
945.373
945.334
945.296
945.259
945.224
945.19
945.157
945.125
945.095
945.066
945.038
945.011
944.985
944.961
944.937
944.915
944.894
944.874
944.856
944.838
944.821
944.805
944.79
944.777
944.764
944.752
944.74
944.73
944.72
944.711
944.703
944.695
944.688
944.681
944.675
944.67
944.664
944.66
944.655
944.651
944.647
944.643
944.64
944.636
944.633
944.629
944.626
944.623
944.62
944.617
944.613
944.61
944.607
944.603
944.6
944.596
944.592
944.589
944.585
944.581
944.577
944.574
944.57
944.566
944.563
944.56
944.558
944.556
944.555
944.555
944.555
944.555
947.641
947.572
947.497
947.422
947.345
947.269
947.193
947.118
947.044
946.97
946.897
946.825
946.753
946.683
946.613
946.544
946.477
946.41
946.344
946.279
946.216
946.153
946.091
946.031
945.971
945.913
945.856
945.799
945.745
945.691
945.638
945.587
945.537
945.489
945.442
945.396
945.351
945.308
945.266
945.226
945.187
945.149
945.113
945.078
945.045
945.013
944.982
944.953
944.926
944.899
944.874
944.851
944.828
944.807
944.787
944.769
944.751
944.735
944.72
944.706
944.692
944.68
944.669
944.658
944.649
944.64
944.632
944.624
944.617
944.611
944.605
944.599
944.594
944.59
944.586
944.582
944.579
944.575
944.572
944.57
944.568
944.565
944.564
944.562
944.56
944.559
944.558
944.557
944.557
944.556
944.556
944.555
944.555
944.555
944.555
944.555
944.555
944.555
944.555
944.555
948.764
948.686
948.601
948.513
948.424
948.335
948.246
948.156
948.068
947.979
947.891
947.804
947.717
947.631
947.546
947.461
947.377
947.294
947.212
947.13
947.049
946.969
946.89
946.812
946.735
946.659
946.584
946.51
946.437
946.365
946.294
946.224
946.156
946.088
946.021
945.956
945.892
945.829
945.768
945.708
945.649
945.592
945.536
945.482
945.429
945.378
945.328
945.28
945.234
945.189
945.146
945.105
945.065
945.027
944.991
944.957
944.924
944.893
944.864
944.836
944.811
944.786
944.764
944.743
944.723
944.705
944.688
944.673
944.659
944.647
944.635
944.625
944.615
944.607
944.599
944.593
944.587
944.582
944.577
944.573
944.57
944.567
944.564
944.562
944.561
944.559
944.558
944.557
944.556
944.556
944.555
944.555
944.555
944.555
944.555
944.555
944.555
944.555
944.555
944.555
950.472
950.385
950.292
950.195
950.097
949.998
949.898
949.798
949.698
949.599
949.499
949.4
949.301
949.202
949.103
949.005
948.907
948.809
948.711
948.614
948.517
948.421
948.325
948.229
948.134
948.04
947.946
947.852
947.759
947.667
947.575
947.484
947.393
947.303
947.214
947.125
947.037
946.95
946.864
946.778
946.694
946.61
946.528
946.446
946.366
946.286
946.208
946.132
946.056
945.982
945.91
945.839
945.769
945.702
945.636
945.572
945.509
945.449
945.391
945.335
945.28
945.228
945.179
945.131
945.086
945.042
945.002
944.963
944.926
944.892
944.86
944.83
944.802
944.776
944.751
944.729
944.708
944.689
944.672
944.656
944.642
944.629
944.617
944.607
944.597
944.589
944.582
944.575
944.57
944.565
944.562
944.559
944.557
944.556
944.555
944.555
944.555
944.555
944.555
944.555
953.099
953.008
952.912
952.813
952.713
952.61
952.508
952.405
952.302
952.199
952.096
951.993
951.89
951.787
951.683
951.58
951.477
951.373
951.269
951.164
951.06
950.954
950.849
950.742
950.636
950.53
950.423
950.317
950.211
950.105
949.998
949.892
949.786
949.679
949.573
949.466
949.359
949.253
949.146
949.039
948.932
948.824
948.717
948.609
948.501
948.394
948.286
948.178
948.069
947.961
947.853
947.745
947.637
947.529
947.422
947.314
947.207
947.101
946.995
946.89
946.786
946.683
946.582
946.481
946.382
946.285
946.19
946.096
946.005
945.915
945.828
945.744
945.662
945.582
945.505
945.431
945.36
945.291
945.225
945.161
945.101
945.043
944.988
944.935
944.885
944.838
944.794
944.752
944.714
944.679
944.648
944.621
944.6
944.585
944.575
944.569
944.564
944.561
944.559
944.558
956.942
956.857
956.769
956.678
956.586
956.493
956.401
956.307
956.215
956.122
956.03
955.938
955.847
955.755
955.664
955.573
955.482
955.391
955.3
955.209
955.117
955.026
954.934
954.842
954.749
954.657
954.564
954.471
954.377
954.283
954.189
954.093
953.998
953.901
953.804
953.705
953.606
953.505
953.404
953.301
953.196
953.09
952.983
952.874
952.763
952.65
952.536
952.419
952.3
952.18
952.057
951.931
951.804
951.674
951.541
951.406
951.269
951.129
950.986
950.841
950.694
950.544
950.392
950.238
950.081
949.922
949.762
949.599
949.435
949.269
949.102
948.933
948.763
948.592
948.42
948.247
948.074
947.9
947.725
947.549
947.373
947.195
947.016
946.835
946.653
946.469
946.284
946.098
945.912
945.727
945.547
945.375
945.215
945.074
944.957
944.871
944.801
944.744
944.702
944.675
962.383
962.322
962.26
962.197
962.134
962.071
962.009
961.947
961.886
961.825
961.766
961.708
961.65
961.593
961.537
961.482
961.428
961.374
961.322
961.27
961.219
961.168
961.118
961.069
961.019
960.969
960.918
960.866
960.814
960.76
960.706
960.65
960.594
960.535
960.476
960.415
960.352
960.287
960.221
960.152
960.082
960.009
959.935
959.858
959.779
959.698
959.614
959.528
959.439
959.348
959.254
959.157
959.057
958.953
958.847
958.738
958.625
958.508
958.388
958.263
958.136
958.004
957.867
957.727
957.582
957.432
957.278
957.118
956.953
956.783
956.606
956.424
956.236
956.04
955.838
955.628
955.409
955.181
954.942
954.693
954.433
954.161
953.874
953.57
953.248
952.904
952.537
952.143
951.72
951.267
950.783
950.271
949.735
949.181
948.621
948.081
947.607
947.173
946.801
946.525
969.638
969.62
969.603
969.586
969.57
969.554
969.539
969.523
969.509
969.494
969.48
969.466
969.453
969.44
969.427
969.415
969.403
969.39
969.378
969.366
969.354
969.341
969.328
969.315
969.301
969.286
969.272
969.256
969.24
969.223
969.206
969.188
969.169
969.15
969.13
969.11
969.089
969.067
969.045
969.022
968.998
968.974
968.949
968.924
968.899
968.872
968.846
968.818
968.791
968.762
968.733
968.704
968.674
968.644
968.613
968.581
968.549
968.515
968.481
968.446
968.41
968.373
968.335
968.296
968.255
968.212
968.168
968.122
968.074
968.023
967.969
967.913
967.853
967.789
967.721
967.649
967.572
967.489
967.4
967.304
967.198
967.081
966.954
966.814
966.661
966.493
966.309
966.106
965.873
965.6
965.28
964.907
964.472
963.962
963.365
962.659
961.847
961.001
960.185
959.516
977.447
977.477
977.506
977.534
977.562
977.588
977.614
977.639
977.663
977.687
977.709
977.732
977.753
977.774
977.794
977.815
977.834
977.854
977.873
977.892
977.911
977.93
977.949
977.968
977.988
978.008
978.028
978.048
978.07
978.092
978.114
978.137
978.161
978.186
978.212
978.239
978.267
978.295
978.325
978.356
978.388
978.421
978.455
978.491
978.528
978.566
978.605
978.646
978.688
978.732
978.778
978.825
978.873
978.924
978.977
979.031
979.088
979.148
979.21
979.275
979.344
979.416
979.492
979.573
979.658
979.748
979.843
979.944
980.052
980.166
980.288
980.418
980.557
980.705
980.863
981.033
981.214
981.408
981.616
981.838
982.075
982.327
982.596
982.882
983.185
983.506
983.843
984.199
984.582
985.002
985.462
985.969
986.516
987.108
987.746
988.433
989.164
989.924
990.672
991.331
983.846
983.912
983.98
984.049
984.117
984.186
984.254
984.322
984.388
984.455
984.521
984.587
984.652
984.717
984.781
984.846
984.909
984.973
985.037
985.1
985.164
985.228
985.291
985.355
985.419
985.484
985.549
985.615
985.681
985.748
985.816
985.884
985.954
986.025
986.097
986.17
986.244
986.321
986.398
986.477
986.558
986.641
986.726
986.813
986.902
986.993
987.087
987.183
987.282
987.383
987.487
987.595
987.705
987.818
987.935
988.055
988.179
988.307
988.438
988.574
988.715
988.861
989.013
989.17
989.334
989.503
989.68
989.864
990.056
990.255
990.464
990.681
990.908
991.144
991.39
991.647
991.914
992.193
992.481
992.781
993.091
993.41
993.738
994.075
994.418
994.767
995.119
995.473
995.826
996.176
996.518
996.851
997.186
997.515
997.833
998.136
998.418
998.671
998.884
999.043
988.669
988.753
988.841
988.932
989.023
989.115
989.207
989.3
989.393
989.486
989.578
989.671
989.763
989.856
989.948
990.041
990.133
990.226
990.319
990.413
990.506
990.6
990.694
990.788
990.883
990.978
991.073
991.17
991.266
991.364
991.462
991.561
991.661
991.761
991.863
991.965
992.069
992.174
992.28
992.387
992.495
992.605
992.716
992.829
992.943
993.059
993.176
993.296
993.416
993.539
993.663
993.79
993.918
994.048
994.181
994.315
994.452
994.59
994.731
994.875
995.02
995.168
995.318
995.47
995.624
995.781
995.94
996.101
996.264
996.428
996.595
996.763
996.932
997.102
997.272
997.443
997.614
997.784
997.953
998.119
998.283
998.444
998.6
998.75
998.895
999.032
999.162
999.283
999.393
999.494
999.582
999.659
999.722
999.776
999.823
999.863
999.895
999.921
999.94
999.952
992.193
992.279
992.371
992.466
992.562
992.66
992.758
992.857
992.956
993.054
993.153
993.252
993.351
993.45
993.548
993.647
993.747
993.846
993.945
994.044
994.144
994.244
994.344
994.444
994.544
994.645
994.746
994.847
994.948
995.05
995.152
995.254
995.357
995.459
995.562
995.665
995.769
995.872
995.976
996.08
996.183
996.287
996.391
996.495
996.599
996.703
996.806
996.91
997.013
997.115
997.218
997.32
997.421
997.522
997.623
997.722
997.821
997.92
998.017
998.113
998.208
998.302
998.395
998.486
998.575
998.663
998.749
998.833
998.915
998.994
999.072
999.147
999.219
999.289
999.356
999.42
999.482
999.54
999.594
999.646
999.694
999.738
999.778
999.815
999.848
999.878
999.903
999.925
999.943
999.958
999.97
999.978
999.985
999.989
999.992
999.994
999.996
999.997
999.998
999.999
994.593
994.674
994.761
994.852
994.943
995.036
995.13
995.223
995.317
995.41
995.504
995.597
995.69
995.782
995.875
995.967
996.059
996.151
996.242
996.333
996.424
996.515
996.605
996.695
996.784
996.874
996.962
997.051
997.139
997.226
997.313
997.399
997.485
997.57
997.654
997.738
997.82
997.902
997.983
998.063
998.142
998.22
998.297
998.372
998.447
998.52
998.591
998.661
998.73
998.797
998.862
998.926
998.988
999.049
999.107
999.164
999.218
999.271
999.322
999.371
999.418
999.463
999.505
999.546
999.585
999.622
999.657
999.689
999.72
999.749
999.776
999.801
999.825
999.846
999.866
999.885
999.901
999.916
999.93
999.942
999.952
999.961
999.969
999.976
999.982
999.987
999.99
999.993
999.995
999.997
999.998
999.999
999.999
1000
1000
1000
1000
1000
1000
1000
996.182
996.254
996.332
996.413
996.495
996.578
996.661
996.744
996.826
996.908
996.99
997.071
997.151
997.231
997.311
997.389
997.468
997.545
997.622
997.698
997.774
997.848
997.922
997.995
998.067
998.138
998.208
998.277
998.345
998.412
998.478
998.543
998.607
998.67
998.731
998.791
998.85
998.908
998.964
999.019
999.072
999.124
999.174
999.223
999.27
999.316
999.36
999.402
999.443
999.482
999.519
999.555
999.589
999.621
999.652
999.681
999.709
999.735
999.759
999.782
999.803
999.823
999.841
999.858
999.874
999.888
999.902
999.914
999.925
999.935
999.944
999.952
999.959
999.966
999.971
999.976
999.98
999.984
999.987
999.99
999.992
999.994
999.996
999.997
999.998
999.998
999.999
999.999
1000
1000
1000
1000
1000
1000
1000
1000
1000
1000
1000
1000
997.262
997.325
997.392
997.461
997.531
997.601
997.67
997.739
997.808
997.875
997.943
998.009
998.075
998.14
998.204
998.267
998.33
998.391
998.452
998.512
998.57
998.628
998.685
998.741
998.796
998.849
998.902
998.954
999.004
999.053
999.101
999.148
999.193
999.238
999.28
999.322
999.362
999.401
999.438
999.474
999.509
999.542
999.574
999.605
999.634
999.662
999.688
999.713
999.737
999.759
999.78
999.8
999.818
999.836
999.852
999.867
999.88
999.893
999.905
999.916
999.926
999.935
999.943
999.95
999.957
999.963
999.968
999.973
999.977
999.981
999.984
999.987
999.989
999.991
999.993
999.994
999.996
999.997
999.997
999.998
999.999
999.999
999.999
999.999
1000
1000
1000
1000
1000
1000
1000
1000
1000
1000
1000
1000
1000
1000
1000
1000
998.03
998.083
998.139
998.195
998.252
998.309
998.364
998.42
998.474
998.528
998.581
998.633
998.685
998.735
998.785
998.834
998.882
998.929
998.975
999.02
999.064
999.108
999.15
999.191
999.231
999.271
999.309
999.346
999.382
999.417
999.451
999.484
999.515
999.545
999.575
999.603
999.63
999.655
999.68
999.703
999.725
999.747
999.767
999.786
999.804
999.82
999.836
999.851
999.865
999.878
999.89
999.901
999.911
999.921
999.93
999.938
999.945
999.952
999.958
999.963
999.968
999.972
999.976
999.98
999.983
999.985
999.988
999.99
999.992
999.993
999.994
999.995
999.996
999.997
999.998
999.998
999.999
999.999
999.999
999.999
1000
1000
1000
1000
1000
1000
1000
1000
1000
1000
1000
1000
1000
1000
1000
1000
1000
1000
1000
1000
998.594
998.637
998.682
998.727
998.772
998.816
998.86
998.903
998.945
998.987
999.027
999.067
999.106
999.145
999.182
999.219
999.254
999.289
999.323
999.357
999.389
999.42
999.451
999.48
999.509
999.537
999.564
999.589
999.614
999.638
999.661
999.684
999.705
999.725
999.744
999.763
999.78
999.797
999.813
999.827
999.842
999.855
999.867
999.879
999.89
999.9
999.91
999.919
999.927
999.934
999.941
999.948
999.954
999.959
999.964
999.968
999.972
999.976
999.979
999.982
999.985
999.987
999.989
999.991
999.992
999.994
999.995
999.996
999.996
999.997
999.998
999.998
999.999
999.999
999.999
999.999
1000
1000
1000
1000
1000
1000
1000
1000
1000
1000
1000
1000
1000
1000
1000
1000
1000
1000
1000
1000
1000
1000
1000
1000
999.097
999.129
999.162
999.194
999.226
999.258
999.289
999.319
999.348
999.377
999.405
999.433
999.46
999.485
999.511
999.535
999.559
999.582
999.604
999.626
999.647
999.667
999.686
999.705
999.723
999.74
999.757
999.773
999.788
999.802
999.816
999.829
999.842
999.853
999.865
999.875
999.885
999.895
999.903
999.912
999.919
999.927
999.933
999.94
999.945
999.951
999.956
999.96
999.965
999.969
999.972
999.975
999.978
999.981
999.983
999.986
999.987
999.989
999.991
999.992
999.993
999.994
999.995
999.996
999.997
999.997
999.998
999.998
999.999
999.999
999.999
999.999
999.999
1000
1000
1000
1000
1000
1000
1000
1000
1000
1000
1000
1000
1000
1000
1000
1000
1000
1000
1000
1000
1000
1000
1000
1000
1000
1000
1000
944.555
944.555
944.555
944.555
944.555
944.555
944.555
944.555
944.555
944.555
944.555
944.555
944.555
944.555
944.555
944.555
944.555
944.555
944.555
944.555
944.555
944.555
944.555
944.555
944.555
944.555
944.555
944.555
944.555
944.555
944.555
944.555
944.555
944.555
944.555
944.555
944.555
944.555
944.555
944.555
944.555
944.555
944.555
944.555
944.555
944.555
944.555
944.555
944.555
944.555
944.555
944.555
944.555
944.555
944.555
944.555
944.555
944.555
944.555
944.555
944.555
944.555
944.555
944.555
944.555
944.555
944.555
944.555
944.555
944.555
944.555
944.555
944.555
944.555
944.555
944.555
944.555
944.555
944.555
944.556
944.555
944.555
944.555
944.555
944.555
944.555
944.555
944.555
944.555
944.555
944.555
944.555
944.555
944.555
944.555
944.555
944.556
944.557
944.561
944.576
944.555
944.555
944.555
944.555
944.555
944.555
944.555
944.555
944.555
944.555
944.556
944.556
944.556
944.557
944.558
944.561
944.568
944.583
944.631
944.861
944.558
944.559
944.56
944.561
944.563
944.564
944.566
944.567
944.568
944.568
944.568
944.57
944.572
944.577
944.586
944.607
944.653
944.777
945.209
947.657
944.674
944.687
944.702
944.717
944.733
944.745
944.751
944.75
944.742
944.734
944.725
944.72
944.72
944.732
944.77
944.86
945.073
945.645
947.682
960.65
946.458
946.54
946.616
946.688
946.739
946.736
946.696
946.618
946.537
946.444
946.347
946.239
946.136
946.047
946.063
946.266
946.869
948.321
952.188
979.49
959.278
959.446
959.603
959.736
959.811
959.75
959.638
959.514
959.354
959.125
958.845
958.458
958.013
957.402
956.893
956.649
957.328
959.397
964.434
980.06
991.629
991.529
991.455
991.403
991.409
991.566
991.771
991.981
992.202
992.459
992.737
993.08
993.454
993.93
994.228
994.239
993.652
992.604
991.265
989.179
999.088
999.047
999.011
998.978
998.956
998.965
998.994
999.049
999.104
999.165
999.225
999.295
999.36
999.434
999.478
999.482
999.413
999.261
998.883
994.364
999.953
999.948
999.942
999.935
999.929
999.924
999.921
999.923
999.927
999.934
999.94
999.946
999.952
999.956
999.958
999.954
999.94
999.897
999.695
997.685
999.999
999.999
999.998
999.998
999.997
999.997
999.996
999.996
999.996
999.996
999.996
999.997
999.997
999.997
999.997
999.996
999.993
999.984
999.942
999.578
1000
1000
1000
1000
1000
1000
1000
1000
1000
1000
1000
1000
1000
1000
1000
1000
999.999
999.999
999.997
999.992
1000
1000
1000
1000
1000
1000
1000
1000
1000
1000
1000
1000
1000
1000
1000
1000
1000
1000
1000
1000
1000
1000
1000
1000
1000
1000
1000
1000
1000
1000
1000
1000
1000
1000
1000
1000
1000
1000
1000
1000
1000
1000
1000
1000
1000
1000
1000
1000
1000
1000
1000
1000
1000
1000
1000
1000
1000
1000
1000
1000
1000
1000
1000
1000
1000
1000
1000
1000
1000
1000
1000
1000
1000
1000
1000
1000
1000
1000
1000
1000
1000
1000
1000
1000
1000
1000
1000
1000
1000
1000
1000
1000
1000
1000
1000
1000
1000
1000
1000
1000
944.555
944.555
944.555
944.555
944.555
944.555
944.555
944.555
944.555
944.555
944.555
944.555
944.555
944.555
944.555
944.555
944.555
944.555
944.555
944.555
944.555
944.555
944.555
944.555
944.555
944.555
944.555
944.555
944.555
944.555
944.555
944.555
944.555
944.555
944.555
944.555
944.555
944.555
944.555
944.555
944.555
944.555
944.555
944.555
944.555
944.555
944.555
944.555
944.555
944.555
944.555
944.555
944.555
944.555
944.555
944.555
944.555
944.555
944.555
944.555
944.555
944.555
944.555
944.555
944.555
944.555
944.555
944.555
944.555
944.555
944.555
944.555
944.555
944.555
944.555
944.555
944.555
944.555
944.555
944.555
944.555
944.555
944.555
944.555
944.555
944.555
944.555
944.555
944.555
944.555
944.555
944.555
944.555
944.555
944.555
944.555
944.555
944.555
944.555
944.555
944.555
944.555
944.555
944.555
944.555
944.555
944.555
944.555
944.555
944.555
944.555
944.555
944.555
944.555
944.555
944.555
944.555
944.555
944.555
944.555
944.555
944.555
944.555
944.555
944.555
944.555
944.555
944.555
944.555
944.555
944.555
944.555
944.555
944.555
944.555
944.555
944.555
944.555
944.555
944.555
944.555
944.555
944.555
944.555
944.555
944.555
944.555
944.555
944.555
944.555
944.555
944.555
944.555
944.555
944.555
944.555
944.555
944.555
944.555
944.555
944.555
944.555
944.555
944.555
944.555
944.555
944.555
944.555
944.555
944.555
944.555
944.555
944.555
944.555
944.555
944.555
944.555
944.555
944.555
944.555
944.555
944.555
944.555
944.555
944.555
944.555
944.555
944.555
944.555
944.555
944.555
944.555
944.555
944.555
944.555
944.555
944.555
944.555
944.555
944.555
944.555
944.555
944.555
944.555
944.555
944.555
944.555
944.555
944.555
944.555
944.555
944.555
944.555
944.555
944.555
944.555
944.555
944.555
944.555
944.555
944.555
944.555
944.555
944.555
944.555
944.555
944.555
944.555
944.555
944.555
944.555
944.555
944.555
944.555
944.555
944.555
944.555
944.555
944.555
944.555
944.555
944.555
944.555
944.555
944.555
944.555
944.555
944.555
944.555
944.555
944.555
944.555
944.555
944.555
944.555
944.555
944.555
944.555
944.555
944.555
944.555
944.555
944.555
944.555
944.555
944.555
944.555
944.555
944.555
944.555
944.555
944.555
944.555
944.555
944.555
944.555
944.555
944.555
944.555
944.555
944.555
944.555
944.555
944.555
944.555
944.555
944.555
944.555
944.555
944.555
944.555
944.555
944.555
944.555
944.555
944.555
944.555
944.555
944.555
944.555
944.555
944.555
944.555
944.555
944.555
944.555
944.555
944.555
944.555
944.555
944.555
944.555
944.555
944.555
944.555
944.555
944.555
944.555
944.555
944.555
944.555
944.555
944.555
944.555
944.555
944.555
944.555
944.555
944.555
944.555
944.555
944.555
944.555
944.555
944.555
944.555
944.555
944.555
944.555
944.555
944.555
944.555
944.555
944.555
944.555
944.555
944.555
944.555
944.555
944.555
944.555
944.555
944.555
944.555
944.555
944.555
944.555
944.555
944.555
944.555
944.555
944.555
944.555
944.555
944.555
944.555
944.555
944.555
944.555
944.555
944.555
944.555
944.555
944.555
944.555
944.555
944.555
944.555
944.555
944.555
944.555
944.555
944.555
944.555
944.555
944.555
944.555
944.555
944.555
944.555
944.555
944.555
944.555
944.555
944.555
944.555
944.555
944.555
944.555
944.555
944.555
944.555
944.555
944.555
944.555
944.555
944.555
944.555
944.555
944.555
944.555
944.555
944.555
944.555
944.555
944.555
944.555
944.555
944.555
944.555
944.555
944.555
944.555
944.555
944.555
944.555
944.555
944.555
944.555
944.555
944.555
944.555
944.555
944.555
944.555
944.555
944.555
944.555
944.555
944.555
944.555
944.555
944.555
944.555
944.555
944.555
944.555
944.555
944.555
944.555
944.555
944.555
944.555
944.555
944.555
944.555
944.555
944.555
944.555
944.555
944.555
944.555
944.555
944.555
944.555
944.555
944.555
944.555
944.555
944.555
944.555
944.555
944.555
944.555
944.555
944.555
944.555
944.555
944.555
944.555
944.555
944.555
944.555
944.555
944.555
944.555
944.555
944.555
944.555
944.555
944.555
944.555
944.555
944.555
944.555
944.555
944.555
944.555
944.555
944.555
944.555
944.555
944.555
944.555
944.555
944.555
944.555
944.555
944.555
944.555
944.555
944.555
944.555
944.555
944.555
944.555
944.555
944.555
944.555
944.555
944.555
944.555
944.555
944.555
944.555
944.555
944.555
944.555
944.555
944.555
944.555
944.555
944.555
944.555
944.555
944.555
944.555
944.555
944.555
944.555
944.555
944.555
944.555
944.555
944.555
944.555
944.555
944.555
944.555
944.555
944.555
944.555
944.555
944.555
944.555
944.555
944.555
944.555
944.555
944.555
944.555
944.555
944.555
944.555
944.555
944.555
944.555
944.555
944.555
944.555
944.555
944.555
944.555
944.555
944.555
944.555
944.555
944.555
944.555
944.555
944.555
944.555
944.555
944.555
944.555
944.555
944.555
944.555
944.555
944.555
944.555
944.555
944.555
944.555
944.555
944.555
944.555
944.555
944.555
944.555
944.555
944.555
944.555
944.555
944.555
944.555
944.555
944.555
944.555
944.555
944.555
944.555
944.555
944.555
944.555
944.555
944.555
944.555
944.555
944.555
944.555
944.555
944.555
944.555
944.555
944.555
944.555
944.555
944.555
944.555
944.555
944.555
944.555
944.555
944.555
944.555
944.555
944.555
944.555
944.555
944.555
944.555
944.555
944.555
944.555
944.555
944.555
944.555
944.555
944.555
944.555
944.555
944.555
944.555
944.555
944.555
944.555
944.555
944.555
944.555
944.555
944.555
944.555
944.555
944.555
944.555
944.555
944.555
944.555
944.555
944.555
944.555
944.555
944.555
944.555
944.555
944.555
944.555
944.555
944.555
944.555
944.555
944.555
944.555
944.555
944.555
944.555
944.555
944.555
944.555
944.555
944.555
944.555
944.555
944.555
944.555
944.555
944.555
944.555
944.555
944.555
944.555
944.555
944.555
944.555
944.555
944.555
944.555
944.555
944.555
944.555
944.555
944.555
944.555
944.555
944.555
944.555
944.555
944.555
944.555
944.555
944.555
944.555
944.555
944.555
944.555
944.555
944.555
944.555
944.555
944.555
944.555
944.555
944.555
944.555
944.555
944.555
944.555
944.555
944.555
944.555
944.555
944.555
944.555
944.555
944.555
944.555
944.555
944.555
944.555
944.555
944.555
944.555
944.555
944.555
944.555
944.555
944.555
944.555
944.555
944.555
944.555
944.555
944.555
944.555
944.555
944.555
944.555
944.555
944.555
944.555
944.555
944.555
944.555
944.555
944.555
944.555
944.555
944.555
944.555
944.555
944.555
944.555
944.555
944.555
944.555
944.555
944.555
944.555
944.555
944.555
944.555
944.555
944.555
944.555
944.555
944.555
944.555
944.555
944.555
944.555
944.555
944.555
944.555
944.555
944.555
944.555
944.555
944.555
944.555
944.555
944.555
944.555
944.555
944.555
944.555
944.555
944.555
944.555
944.555
944.555
944.555
944.555
944.555
944.555
944.555
944.555
944.555
944.555
944.555
944.555
944.555
944.555
944.555
944.555
944.555
944.555
944.555
944.555
944.555
944.555
944.555
944.555
944.555
944.555
944.555
944.555
944.555
944.555
944.555
944.555
944.555
944.555
944.555
944.555
944.555
944.555
944.555
944.555
944.555
944.555
944.555
944.555
944.555
944.555
944.555
944.555
944.555
944.555
944.555
944.555
944.555
944.555
944.555
944.555
944.555
944.555
944.555
944.555
944.555
944.555
944.555
944.555
944.555
944.555
944.555
944.555
944.555
944.555
944.555
944.555
944.555
944.555
944.555
944.555
944.555
944.555
944.555
944.555
944.555
944.555
944.555
944.555
944.555
944.555
944.555
944.555
944.555
944.555
944.555
944.555
944.555
944.555
944.555
944.555
944.555
944.555
944.555
944.555
944.555
944.555
944.555
944.555
944.555
944.555
944.555
944.555
944.555
944.555
944.555
944.555
944.555
944.555
944.555
944.555
944.555
944.555
944.555
944.555
944.555
944.555
944.555
944.555
944.555
944.555
944.555
944.555
944.555
944.555
944.555
944.555
944.555
944.555
944.555
944.555
944.555
944.555
944.555
944.555
944.555
944.555
944.555
944.555
944.555
944.555
944.555
944.555
944.555
944.555
944.555
944.555
944.555
944.555
944.555
944.555
944.555
944.555
944.555
944.555
944.555
944.555
944.555
944.555
944.555
944.555
944.555
944.555
944.555
944.555
944.555
944.555
944.555
944.555
944.555
944.555
944.555
944.555
944.555
944.555
944.555
944.555
944.555
944.555
944.555
944.555
944.555
944.555
944.555
944.555
944.555
944.555
944.555
944.555
944.555
944.555
944.555
944.555
944.555
944.555
944.555
944.555
944.555
944.555
944.555
944.555
944.555
944.555
944.555
944.555
944.555
944.555
944.555
944.555
944.555
944.555
944.555
944.555
944.555
944.555
944.555
944.555
944.555
944.555
944.555
944.555
944.555
944.555
944.555
944.555
944.555
944.555
944.555
944.555
944.555
944.555
944.555
944.555
944.555
944.555
944.555
944.555
944.555
944.555
944.555
944.555
944.555
944.555
944.555
944.555
944.555
944.555
944.555
944.555
944.555
944.555
944.555
944.555
944.555
944.555
944.555
944.555
944.555
944.555
944.555
944.555
944.555
944.555
944.555
944.555
944.555
944.555
944.555
944.555
944.555
944.555
944.555
944.555
944.555
944.555
944.555
944.555
944.555
944.555
944.555
944.555
944.555
944.555
944.555
944.555
944.555
944.555
944.555
944.555
944.555
944.555
944.555
944.555
944.555
944.555
944.555
944.555
944.555
944.555
944.555
944.555
944.555
944.555
944.555
944.555
944.555
944.555
944.555
944.555
944.555
944.555
944.555
944.555
944.555
944.555
944.555
944.555
944.555
944.555
944.555
944.555
944.555
944.555
944.555
944.555
944.555
944.555
944.555
944.555
944.555
944.555
944.555
944.555
944.555
944.555
944.555
944.555
944.555
944.555
944.555
944.555
944.555
944.555
944.555
944.555
944.555
944.555
944.555
944.555
944.555
944.555
944.555
944.555
944.555
944.555
944.555
944.555
944.555
944.555
944.555
944.555
944.555
944.555
944.555
944.555
944.555
944.555
944.555
944.555
944.555
944.555
944.555
944.555
944.555
944.555
944.555
944.555
944.555
944.555
944.555
944.555
944.555
944.555
944.555
944.555
944.555
944.555
944.555
944.555
944.555
944.555
944.555
944.555
944.555
944.555
944.555
944.555
944.555
944.555
944.555
944.555
944.555
944.555
944.555
944.555
944.555
944.555
944.555
944.555
944.555
944.555
944.555
944.555
944.555
944.555
944.555
944.555
944.555
944.555
944.555
944.555
944.555
944.555
944.555
944.555
944.555
944.555
944.555
944.555
944.555
944.555
944.555
944.555
944.555
944.555
944.555
944.555
944.555
944.555
944.555
944.555
944.555
944.555
944.555
944.555
944.555
944.555
944.555
944.555
944.555
944.555
944.555
944.555
944.555
944.555
944.555
944.555
944.555
944.555
944.555
944.555
944.555
944.555
944.555
944.555
944.555
944.555
944.555
944.555
944.555
944.555
944.555
944.555
944.555
944.555
944.555
944.555
944.555
944.555
944.555
944.555
944.555
944.555
944.555
944.555
944.555
944.555
944.555
944.555
944.555
944.555
944.555
944.555
944.555
944.555
944.555
944.555
944.555
944.555
944.555
944.555
944.555
944.555
944.555
944.555
944.555
944.555
944.555
944.555
944.555
944.555
944.555
944.555
944.555
944.555
944.555
944.555
944.555
944.555
944.555
944.555
944.555
944.555
944.555
944.555
944.555
944.555