/*--------------------------------*- C++ -*----------------------------------*\
| =========                 |                                                 |
| \\      /  F ield         | OpenFOAM: The Open Source CFD Toolbox           |
|  \\    /   O peration     | Version:  2.1.0                                 |
|   \\  /    A nd           | Web:      www.OpenFOAM.org                      |
|    \\/     M anipulation  |                                                 |
\*---------------------------------------------------------------------------*/
FoamFile
{
    version     2.0;
    format      ascii;
    class       volScalarField;
    location    "0.49";
    object      T;
}
// * * * * * * * * * * * * * * * * * * * * * * * * * * * * * * * * * * * * * //

dimensions      [0 0 0 1 0 0 0];

internalField   nonuniform List<scalar> 
6400
(
390.551
390.631
390.711
390.79
390.867
390.942
391.016
391.088
391.159
391.227
391.294
391.359
391.423
391.485
391.544
391.603
391.659
391.714
391.767
391.818
391.868
391.916
391.962
392.006
392.049
392.09
392.13
392.168
392.204
392.239
392.272
392.304
392.334
392.363
392.39
392.416
392.441
392.464
392.486
392.507
392.526
392.544
392.561
392.577
392.592
392.605
392.618
392.63
392.64
392.65
392.659
392.667
392.674
392.68
392.686
392.691
392.695
392.698
392.701
392.703
392.705
392.706
392.707
392.707
392.706
392.705
392.703
392.701
392.699
392.696
392.692
392.688
392.683
392.678
392.672
392.665
392.657
392.648
392.639
392.628
392.615
392.601
392.585
392.566
392.544
392.516
392.481
392.436
392.375
392.285
392.146
391.905
391.446
390.524
389.34
391.866
393.113
393.15
393.15
393.15
389.74
389.837
389.937
390.037
390.136
390.233
390.329
390.423
390.516
390.607
390.696
390.783
390.868
390.952
391.034
391.113
391.191
391.268
391.342
391.414
391.485
391.553
391.62
391.685
391.748
391.809
391.867
391.924
391.979
392.032
392.083
392.132
392.179
392.224
392.267
392.308
392.348
392.385
392.421
392.455
392.487
392.518
392.547
392.574
392.599
392.623
392.646
392.667
392.686
392.705
392.722
392.737
392.752
392.765
392.777
392.789
392.799
392.808
392.817
392.824
392.831
392.838
392.843
392.848
392.853
392.857
392.861
392.864
392.867
392.869
392.872
392.874
392.876
392.877
392.879
392.88
392.881
392.882
392.882
392.883
392.883
392.883
392.883
392.882
392.882
392.881
392.879
392.877
392.876
392.875
392.875
392.881
392.897
392.933
393.002
393.097
393.147
393.15
393.15
393.15
388.729
388.843
388.963
389.084
389.204
389.324
389.442
389.559
389.674
389.788
389.9
390.01
390.118
390.225
390.329
390.432
390.533
390.632
390.729
390.824
390.917
391.009
391.098
391.185
391.27
391.353
391.434
391.513
391.59
391.664
391.736
391.805
391.873
391.938
392
392.061
392.119
392.175
392.228
392.279
392.328
392.375
392.419
392.462
392.502
392.54
392.576
392.61
392.642
392.672
392.7
392.726
392.751
392.774
392.796
392.816
392.834
392.851
392.867
392.882
392.896
392.908
392.92
392.93
392.94
392.95
392.958
392.966
392.974
392.981
392.988
392.995
393.001
393.007
393.013
393.02
393.026
393.032
393.038
393.044
393.051
393.058
393.064
393.071
393.078
393.085
393.092
393.1
393.107
393.114
393.121
393.128
393.134
393.14
393.145
393.147
393.15
393.15
393.15
393.15
387.276
387.408
387.549
387.692
387.837
387.981
388.125
388.268
388.41
388.55
388.689
388.826
388.962
389.096
389.228
389.359
389.487
389.614
389.739
389.863
389.984
390.103
390.221
390.336
390.449
390.56
390.669
390.776
390.881
390.983
391.083
391.18
391.275
391.368
391.458
391.545
391.63
391.713
391.792
391.869
391.944
392.016
392.085
392.151
392.214
392.275
392.334
392.389
392.442
392.492
392.54
392.585
392.628
392.668
392.706
392.741
392.774
392.806
392.835
392.862
392.887
392.91
392.932
392.952
392.97
392.988
393.003
393.018
393.031
393.043
393.054
393.065
393.074
393.083
393.091
393.098
393.104
393.11
393.116
393.121
393.125
393.129
393.133
393.136
393.139
393.141
393.143
393.145
393.146
393.147
393.148
393.149
393.149
393.15
393.15
393.15
393.15
393.15
393.15
393.15
385.148
385.297
385.457
385.623
385.791
385.96
386.13
386.299
386.467
386.634
386.801
386.967
387.131
387.294
387.456
387.617
387.776
387.934
388.091
388.246
388.399
388.551
388.701
388.849
388.995
389.14
389.283
389.423
389.562
389.699
389.834
389.967
390.098
390.227
390.354
390.478
390.6
390.719
390.836
390.951
391.063
391.172
391.278
391.382
391.482
391.58
391.674
391.766
391.854
391.939
392.021
392.1
392.176
392.248
392.317
392.382
392.445
392.504
392.559
392.612
392.661
392.708
392.751
392.791
392.828
392.863
392.894
392.924
392.95
392.975
392.997
393.017
393.034
393.051
393.065
393.078
393.089
393.099
393.107
393.115
393.121
393.127
393.131
393.135
393.139
393.142
393.144
393.146
393.147
393.148
393.149
393.149
393.15
393.15
393.15
393.15
393.15
393.15
393.15
393.15
381.921
382.085
382.261
382.443
382.629
382.816
383.004
383.193
383.381
383.57
383.758
383.946
384.133
384.32
384.507
384.693
384.878
385.063
385.248
385.432
385.615
385.798
385.98
386.161
386.341
386.52
386.698
386.876
387.052
387.227
387.402
387.575
387.747
387.918
388.087
388.255
388.422
388.588
388.752
388.914
389.075
389.234
389.391
389.546
389.699
389.849
389.998
390.144
390.288
390.428
390.566
390.701
390.834
390.962
391.088
391.21
391.329
391.444
391.555
391.662
391.765
391.864
391.959
392.05
392.137
392.219
392.297
392.371
392.441
392.506
392.568
392.625
392.679
392.728
392.775
392.817
392.856
392.893
392.926
392.956
392.983
393.008
393.03
393.05
393.068
393.084
393.098
393.111
393.121
393.13
393.137
393.142
393.146
393.148
393.149
393.149
393.149
393.15
393.15
393.15
376.982
377.152
377.331
377.517
377.706
377.898
378.09
378.284
378.477
378.671
378.864
379.058
379.252
379.446
379.64
379.834
380.029
380.224
380.42
380.617
380.814
381.012
381.212
381.412
381.612
381.813
382.013
382.214
382.414
382.615
382.815
383.016
383.217
383.418
383.619
383.82
384.022
384.224
384.426
384.628
384.831
385.034
385.237
385.441
385.645
385.849
386.054
386.259
386.464
386.669
386.874
387.079
387.283
387.488
387.692
387.896
388.099
388.301
388.502
388.701
388.899
389.094
389.288
389.479
389.667
389.852
390.034
390.212
390.386
390.556
390.721
390.882
391.039
391.19
391.337
391.478
391.614
391.745
391.872
391.993
392.108
392.219
392.324
392.424
392.519
392.609
392.693
392.773
392.846
392.913
392.972
393.023
393.063
393.093
393.112
393.123
393.131
393.137
393.141
393.143
369.803
369.961
370.125
370.295
370.466
370.639
370.811
370.984
371.157
371.329
371.501
371.672
371.843
372.014
372.184
372.354
372.524
372.694
372.863
373.034
373.204
373.375
373.547
373.719
373.891
374.065
374.238
374.412
374.587
374.763
374.94
375.118
375.298
375.479
375.661
375.845
376.031
376.22
376.41
376.603
376.799
376.998
377.199
377.404
377.612
377.823
378.038
378.257
378.48
378.707
378.938
379.174
379.414
379.658
379.907
380.161
380.42
380.684
380.952
381.225
381.503
381.785
382.072
382.363
382.659
382.958
383.262
383.569
383.879
384.193
384.509
384.828
385.15
385.474
385.799
386.126
386.455
386.785
387.117
387.45
387.785
388.122
388.462
388.805
389.152
389.501
389.854
390.208
390.563
390.914
391.257
391.585
391.889
392.159
392.383
392.546
392.681
392.788
392.868
392.921
359.738
359.85
359.964
360.081
360.196
360.313
360.427
360.541
360.653
360.764
360.873
360.982
361.087
361.193
361.295
361.397
361.496
361.595
361.692
361.788
361.882
361.976
362.067
362.159
362.251
362.344
362.437
362.533
362.629
362.728
362.828
362.931
363.035
363.143
363.253
363.366
363.483
363.602
363.725
363.851
363.981
364.115
364.253
364.394
364.54
364.691
364.846
365.005
365.17
365.339
365.513
365.693
365.878
366.069
366.266
366.469
366.679
366.895
367.118
367.348
367.586
367.83
368.083
368.344
368.613
368.892
369.179
369.476
369.783
370.1
370.428
370.767
371.118
371.482
371.859
372.251
372.659
373.086
373.532
373.997
374.483
374.993
375.53
376.098
376.702
377.347
378.036
378.776
379.571
380.424
381.335
382.301
383.313
384.359
385.419
386.442
387.34
388.164
388.87
389.396
346.494
346.526
346.557
346.587
346.617
346.646
346.674
346.702
346.728
346.754
346.78
346.805
346.829
346.852
346.875
346.898
346.92
346.942
346.964
346.987
347.009
347.032
347.055
347.08
347.105
347.131
347.158
347.186
347.215
347.245
347.277
347.309
347.343
347.378
347.414
347.451
347.489
347.529
347.569
347.611
347.654
347.697
347.742
347.788
347.834
347.882
347.931
347.98
348.031
348.082
348.134
348.188
348.242
348.297
348.353
348.411
348.47
348.53
348.592
348.656
348.721
348.788
348.858
348.929
349.004
349.081
349.161
349.245
349.333
349.425
349.522
349.625
349.734
349.85
349.973
350.105
350.246
350.396
350.557
350.733
350.926
351.139
351.371
351.626
351.905
352.211
352.547
352.916
353.343
353.842
354.425
355.108
355.905
356.838
357.934
359.23
360.725
362.284
363.791
365.028
332.457
332.404
332.352
332.302
332.253
332.205
332.16
332.115
332.072
332.03
331.99
331.95
331.912
331.874
331.838
331.802
331.767
331.732
331.698
331.664
331.631
331.596
331.563
331.528
331.494
331.458
331.422
331.385
331.348
331.309
331.269
331.227
331.184
331.14
331.094
331.046
330.997
330.946
330.893
330.838
330.781
330.722
330.661
330.598
330.532
330.465
330.395
330.322
330.247
330.169
330.088
330.004
329.917
329.827
329.734
329.637
329.536
329.43
329.319
329.204
329.082
328.953
328.818
328.675
328.524
328.365
328.196
328.016
327.825
327.622
327.406
327.176
326.93
326.668
326.387
326.087
325.766
325.422
325.055
324.663
324.245
323.798
323.324
322.819
322.285
321.721
321.126
320.501
319.827
319.09
318.281
317.393
316.435
315.4
314.284
313.085
311.812
310.49
309.191
308.047
321.122
321.005
320.886
320.765
320.645
320.524
320.405
320.285
320.168
320.05
319.934
319.818
319.704
319.59
319.477
319.364
319.252
319.14
319.028
318.916
318.805
318.693
318.582
318.469
318.357
318.243
318.129
318.014
317.898
317.78
317.662
317.541
317.419
317.295
317.169
317.041
316.91
316.777
316.642
316.503
316.361
316.216
316.068
315.916
315.76
315.601
315.437
315.269
315.096
314.919
314.736
314.549
314.356
314.158
313.954
313.745
313.529
313.306
313.077
312.839
312.594
312.339
312.075
311.801
311.517
311.221
310.914
310.594
310.261
309.914
309.552
309.175
308.782
308.372
307.945
307.5
307.037
306.555
306.055
305.538
305.003
304.451
303.884
303.304
302.712
302.112
301.506
300.897
300.29
299.69
299.103
298.531
297.957
297.393
296.849
296.331
295.849
295.417
295.052
294.782
312.675
312.528
312.375
312.217
312.058
311.897
311.737
311.575
311.414
311.253
311.092
310.931
310.77
310.609
310.448
310.287
310.126
309.964
309.803
309.641
309.479
309.316
309.153
308.989
308.825
308.66
308.494
308.327
308.159
307.991
307.821
307.649
307.476
307.302
307.126
306.949
306.769
306.588
306.405
306.219
306.031
305.841
305.649
305.454
305.257
305.057
304.854
304.649
304.44
304.228
304.014
303.796
303.574
303.35
303.122
302.89
302.655
302.416
302.173
301.927
301.676
301.422
301.164
300.902
300.637
300.368
300.095
299.819
299.539
299.256
298.971
298.683
298.393
298.102
297.809
297.517
297.224
296.934
296.645
296.36
296.08
295.805
295.539
295.282
295.035
294.8
294.579
294.373
294.184
294.013
293.862
293.732
293.624
293.531
293.451
293.383
293.328
293.285
293.252
293.231
306.554
306.405
306.247
306.082
305.916
305.747
305.577
305.406
305.236
305.065
304.895
304.724
304.553
304.383
304.212
304.041
303.87
303.699
303.528
303.356
303.185
303.013
302.841
302.668
302.495
302.322
302.148
301.974
301.799
301.624
301.449
301.273
301.097
300.921
300.744
300.567
300.389
300.211
300.033
299.855
299.677
299.498
299.32
299.142
298.964
298.786
298.608
298.431
298.254
298.078
297.903
297.728
297.554
297.381
297.21
297.039
296.869
296.701
296.535
296.37
296.208
296.047
295.889
295.734
295.581
295.431
295.284
295.141
295.001
294.865
294.733
294.605
294.481
294.362
294.247
294.138
294.034
293.935
293.841
293.754
293.672
293.597
293.527
293.465
293.408
293.359
293.315
293.278
293.247
293.222
293.202
293.187
293.176
293.169
293.164
293.159
293.156
293.154
293.153
293.152
302.411
302.272
302.122
301.966
301.808
301.648
301.487
301.326
301.166
301.005
300.844
300.684
300.525
300.366
300.207
300.048
299.891
299.733
299.576
299.42
299.264
299.108
298.953
298.799
298.646
298.493
298.341
298.189
298.039
297.889
297.74
297.592
297.446
297.3
297.156
297.013
296.871
296.731
296.592
296.456
296.321
296.187
296.056
295.927
295.8
295.676
295.553
295.434
295.316
295.202
295.09
294.981
294.875
294.772
294.673
294.576
294.483
294.392
294.306
294.222
294.143
294.066
293.993
293.923
293.857
293.795
293.735
293.679
293.627
293.577
293.531
293.488
293.448
293.412
293.378
293.347
293.318
293.293
293.27
293.249
293.231
293.216
293.202
293.191
293.181
293.173
293.167
293.162
293.158
293.155
293.153
293.152
293.151
293.151
293.15
293.15
293.15
293.15
293.15
293.15
299.679
299.555
299.421
299.282
299.141
299
298.857
298.716
298.574
298.434
298.294
298.155
298.017
297.88
297.744
297.609
297.475
297.342
297.211
297.08
296.951
296.824
296.698
296.573
296.449
296.328
296.208
296.09
295.973
295.859
295.746
295.635
295.526
295.419
295.314
295.212
295.111
295.013
294.917
294.824
294.733
294.644
294.558
294.475
294.394
294.317
294.242
294.169
294.1
294.033
293.969
293.909
293.85
293.795
293.743
293.693
293.646
293.602
293.561
293.522
293.486
293.452
293.421
293.391
293.365
293.34
293.317
293.297
293.278
293.261
293.246
293.232
293.22
293.209
293.199
293.191
293.183
293.177
293.171
293.167
293.163
293.16
293.157
293.155
293.154
293.153
293.152
293.151
293.151
293.15
293.15
293.15
293.15
293.15
293.15
293.15
293.15
293.15
293.15
293.15
297.827
297.72
297.604
297.486
297.367
297.248
297.129
297.01
296.893
296.777
296.662
296.548
296.436
296.325
296.215
296.107
296
295.895
295.791
295.689
295.589
295.49
295.393
295.298
295.204
295.112
295.022
294.935
294.849
294.765
294.683
294.603
294.525
294.45
294.377
294.306
294.237
294.171
294.107
294.046
293.987
293.93
293.875
293.823
293.774
293.726
293.682
293.639
293.599
293.561
293.525
293.491
293.46
293.43
293.403
293.377
293.354
293.332
293.312
293.294
293.277
293.261
293.248
293.235
293.224
293.214
293.204
293.196
293.189
293.183
293.178
293.173
293.169
293.165
293.162
293.16
293.158
293.156
293.155
293.153
293.152
293.152
293.151
293.151
293.151
293.15
293.15
293.15
293.15
293.15
293.15
293.15
293.15
293.15
293.15
293.15
293.15
293.15
293.15
293.15
296.513
296.423
296.327
296.23
296.133
296.036
295.941
295.846
295.753
295.661
295.571
295.481
295.394
295.307
295.222
295.139
295.057
294.977
294.898
294.821
294.745
294.672
294.6
294.529
294.46
294.394
294.328
294.265
294.203
294.144
294.086
294.03
293.976
293.925
293.875
293.827
293.781
293.738
293.696
293.656
293.618
293.582
293.548
293.515
293.485
293.456
293.429
293.404
293.38
293.358
293.338
293.319
293.301
293.285
293.27
293.256
293.244
293.232
293.222
293.213
293.204
293.197
293.19
293.185
293.179
293.175
293.171
293.167
293.164
293.162
293.16
293.158
293.156
293.155
293.154
293.153
293.152
293.152
293.151
293.151
293.151
293.15
293.15
293.15
293.15
293.15
293.15
293.15
293.15
293.15
293.15
293.15
293.15
293.15
293.15
293.15
293.15
293.15
293.15
293.15
295.548
295.475
295.398
295.321
295.244
295.169
295.094
295.021
294.949
294.878
294.809
294.741
294.674
294.608
294.545
294.482
294.421
294.362
294.304
294.247
294.192
294.138
294.086
294.036
293.987
293.94
293.894
293.85
293.807
293.766
293.727
293.689
293.653
293.619
293.586
293.554
293.525
293.496
293.469
293.444
293.42
293.397
293.376
293.356
293.338
293.32
293.304
293.289
293.275
293.262
293.25
293.239
293.229
293.22
293.211
293.204
293.197
293.191
293.185
293.18
293.176
293.172
293.169
293.166
293.163
293.161
293.159
293.158
293.156
293.155
293.154
293.153
293.152
293.152
293.151
293.151
293.151
293.151
293.15
293.15
293.15
293.15
293.15
293.15
293.15
293.15
293.15
293.15
293.15
293.15
293.15
293.15
293.15
293.15
293.15
293.15
293.15
293.15
293.15
293.15
294.691
294.635
294.579
294.524
294.469
294.415
294.363
294.311
294.261
294.212
294.164
294.117
294.071
294.027
293.984
293.942
293.902
293.862
293.824
293.787
293.752
293.717
293.684
293.652
293.622
293.592
293.564
293.537
293.511
293.487
293.463
293.441
293.42
293.4
293.381
293.363
293.346
293.33
293.315
293.301
293.287
293.275
293.263
293.253
293.243
293.234
293.225
293.217
293.21
293.203
293.197
293.192
293.187
293.182
293.178
293.175
293.171
293.168
293.166
293.164
293.162
293.16
293.158
293.157
293.156
293.155
293.154
293.153
293.153
293.152
293.152
293.151
293.151
293.151
293.151
293.15
293.15
293.15
293.15
293.15
293.15
293.15
293.15
293.15
293.15
293.15
293.15
293.15
293.15
293.15
293.15
293.15
293.15
293.15
293.15
293.15
293.15
293.15
293.15
293.15
393.15
393.15
393.15
393.15
393.15
393.15
393.15
393.15
393.15
393.15
393.15
393.15
393.15
393.15
393.15
393.15
393.15
393.15
393.15
393.15
393.15
393.15
393.15
393.15
393.15
393.15
393.15
393.15
393.15
393.15
393.15
393.15
393.15
393.15
393.15
393.15
393.15
393.15
393.15
393.15
393.15
393.15
393.15
393.15
393.15
393.15
393.15
393.15
393.15
393.15
393.15
393.15
393.15
393.15
393.15
393.15
393.15
393.15
393.15
393.15
393.15
393.15
393.15
393.15
393.15
393.15
393.15
393.15
393.15
393.15
393.15
393.15
393.15
393.15
393.15
393.15
393.15
393.15
393.149
393.148
393.15
393.15
393.15
393.15
393.15
393.15
393.15
393.15
393.15
393.15
393.15
393.15
393.15
393.15
393.149
393.149
393.148
393.145
393.138
393.11
393.15
393.15
393.15
393.15
393.15
393.149
393.149
393.149
393.149
393.148
393.148
393.148
393.147
393.145
393.143
393.137
393.125
393.096
393.004
392.565
393.143
393.142
393.14
393.137
393.135
393.132
393.129
393.126
393.125
393.124
393.124
393.121
393.117
393.108
393.09
393.051
392.962
392.725
391.901
387.246
392.922
392.897
392.87
392.84
392.81
392.787
392.774
392.778
392.792
392.808
392.824
392.834
392.834
392.811
392.739
392.567
392.16
391.071
387.198
362.931
389.522
389.367
389.222
389.086
388.988
388.995
389.07
389.219
389.373
389.55
389.734
389.939
390.135
390.304
390.275
389.888
388.741
385.986
378.691
328.822
365.467
365.157
364.866
364.62
364.481
364.595
364.801
365.031
365.327
365.751
366.269
366.988
367.814
368.948
369.894
370.348
369.085
365.247
355.974
327.811
307.531
307.704
307.833
307.923
307.913
307.641
307.286
306.921
306.54
306.094
305.613
305.02
304.376
303.554
303.04
303.02
304.034
305.844
308.162
311.787
294.705
294.775
294.837
294.894
294.931
294.915
294.865
294.772
294.678
294.574
294.472
294.352
294.241
294.115
294.041
294.033
294.15
294.41
295.055
302.806
293.23
293.239
293.249
293.26
293.271
293.28
293.284
293.281
293.274
293.263
293.253
293.242
293.233
293.225
293.222
293.228
293.252
293.325
293.669
297.103
293.152
293.152
293.153
293.154
293.154
293.155
293.156
293.157
293.157
293.157
293.156
293.156
293.155
293.155
293.156
293.157
293.162
293.178
293.248
293.869
293.15
293.15
293.15
293.15
293.15
293.15
293.15
293.15
293.15
293.15
293.15
293.15
293.15
293.15
293.15
293.151
293.151
293.152
293.154
293.164
293.15
293.15
293.15
293.15
293.15
293.15
293.15
293.15
293.15
293.15
293.15
293.15
293.15
293.15
293.15
293.15
293.15
293.15
293.15
293.15
293.15
293.15
293.15
293.15
293.15
293.15
293.15
293.15
293.15
293.15
293.15
293.15
293.15
293.15
293.15
293.15
293.15
293.15
293.15
293.15
293.15
293.15
293.15
293.15
293.15
293.15
293.15
293.15
293.15
293.15
293.15
293.15
293.15
293.15
293.15
293.15
293.15
293.15
293.15
293.15
293.15
293.15
293.15
293.15
293.15
293.15
293.15
293.15
293.15
293.15
293.15
293.15
293.15
293.15
293.15
293.15
293.15
293.15
293.15
293.15
293.15
293.15
293.15
293.15
293.15
293.15
293.15
293.15
293.15
293.15
293.15
293.15
293.15
293.15
293.15
293.15
293.15
293.15
293.15
293.15
393.15
393.15
393.15
393.15
393.15
393.15
393.15
393.15
393.15
393.15
393.15
393.15
393.15
393.15
393.15
393.15
393.15
393.15
393.15
393.15
393.15
393.15
393.15
393.15
393.15
393.15
393.15
393.15
393.15
393.15
393.15
393.15
393.15
393.15
393.15
393.15
393.15
393.15
393.15
393.15
393.15
393.15
393.15
393.15
393.15
393.15
393.15
393.15
393.15
393.15
393.15
393.15
393.15
393.15
393.15
393.15
393.15
393.15
393.15
393.15
393.15
393.15
393.15
393.15
393.15
393.15
393.15
393.15
393.15
393.15
393.15
393.15
393.15
393.15
393.15
393.15
393.15
393.15
393.15
393.15
393.15
393.15
393.15
393.15
393.15
393.15
393.15
393.15
393.15
393.15
393.15
393.15
393.15
393.15
393.15
393.15
393.15
393.15
393.15
393.15
393.15
393.15
393.15
393.15
393.15
393.15
393.15
393.15
393.15
393.15
393.15
393.15
393.15
393.15
393.15
393.15
393.15
393.15
393.15
393.15
393.15
393.15
393.15
393.15
393.15
393.15
393.15
393.15
393.15
393.15
393.15
393.15
393.15
393.15
393.15
393.15
393.15
393.15
393.15
393.15
393.15
393.15
393.15
393.15
393.15
393.15
393.15
393.15
393.15
393.15
393.15
393.15
393.15
393.15
393.15
393.15
393.15
393.15
393.15
393.15
393.15
393.15
393.15
393.15
393.15
393.15
393.15
393.15
393.15
393.15
393.15
393.15
393.15
393.15
393.15
393.15
393.15
393.15
393.15
393.15
393.15
393.15
393.15
393.15
393.15
393.15
393.15
393.15
393.15
393.15
393.15
393.15
393.15
393.15
393.15
393.15
393.15
393.15
393.15
393.15
393.15
393.15
393.15
393.15
393.15
393.15
393.15
393.15
393.15
393.15
393.15
393.15
393.15
393.15
393.15
393.15
393.15
393.15
393.15
393.15
393.15
393.15
393.15
393.15
393.15
393.15
393.15
393.15
393.15
393.15
393.15
393.15
393.15
393.15
393.15
393.15
393.15
393.15
393.15
393.15
393.15
393.15
393.15
393.15
393.15
393.15
393.15
393.15
393.15
393.15
393.15
393.15
393.15
393.15
393.15
393.15
393.15
393.15
393.15
393.15
393.15
393.15
393.15
393.15
393.15
393.15
393.15
393.15
393.15
393.15
393.15
393.15
393.15
393.15
393.15
393.15
393.15
393.15
393.15
393.15
393.15
393.15
393.15
393.15
393.15
393.15
393.15
393.15
393.15
393.15
393.15
393.15
393.15
393.15
393.15
393.15
393.15
393.15
393.15
393.15
393.15
393.15
393.15
393.15
393.15
393.15
393.15
393.15
393.15
393.15
393.15
393.15
393.15
393.15
393.15
393.15
393.15
393.15
393.15
393.15
393.15
393.15
393.15
393.15
393.15
393.15
393.15
393.15
393.15
393.15
393.15
393.15
393.15
393.15
393.15
393.15
393.15
393.15
393.15
393.15
393.15
393.15
393.15
393.15
393.15
393.15
393.15
393.15
393.15
393.15
393.15
393.15
393.15
393.15
393.15
393.15
393.15
393.15
393.15
393.15
393.15
393.15
393.15
393.15
393.15
393.15
393.15
393.15
393.15
393.15
393.15
393.15
393.15
393.15
393.15
393.15
393.15
393.15
393.15
393.15
393.15
393.15
393.15
393.15
393.15
393.15
393.15
393.15
393.15
393.15
393.15
393.15
393.15
393.15
393.15
393.15
393.15
393.15
393.15
393.15
393.15
393.15
393.15
393.15
393.15
393.15
393.15
393.15
393.15
393.15
393.15
393.15
393.15
393.15
393.15
393.15
393.15
393.15
393.15
393.15
393.15
393.15
393.15
393.15
393.15
393.15
393.15
393.15
393.15
393.15
393.15
393.15
393.15
393.15
393.15
393.15
393.15
393.15
393.15
393.15
393.15
393.15
393.15
393.15
393.15
393.15
393.15
393.15
393.15
393.15
393.15
393.15
393.15
393.15
393.15
393.15
393.15
393.15
393.15
393.15
393.15
393.15
393.15
393.15
393.15
393.15
393.15
393.15
393.15
393.15
393.15
393.15
393.15
393.15
393.15
393.15
393.15
393.15
393.15
393.15
393.15
393.15
393.15
393.15
393.15
393.15
393.15
393.15
393.15
393.15
393.15
393.15
393.15
393.15
393.15
393.15
393.15
393.15
393.15
393.15
393.15
393.15
393.15
393.15
393.15
393.15
393.15
393.15
393.15
393.15
393.15
393.15
393.15
393.15
393.15
393.15
393.15
393.15
393.15
393.15
393.15
393.15
393.15
393.15
393.15
393.15
393.15
393.15
393.15
393.15
393.15
393.15
393.15
393.15
393.15
393.15
393.15
393.15
393.15
393.15
393.15
393.15
393.15
393.15
393.15
393.15
393.15
393.15
393.15
393.15
393.15
393.15
393.15
393.15
393.15
393.15
393.15
393.15
393.15
393.15
393.15
393.15
393.15
393.15
393.15
393.15
393.15
393.15
393.15
393.15
393.15
393.15
393.15
393.15
393.15
393.15
393.15
393.15
393.15
393.15
393.15
393.15
393.15
393.15
393.15
393.15
393.15
393.15
393.15
393.15
393.15
393.15
393.15
393.15
393.15
393.15
393.15
393.15
393.15
393.15
393.15
393.15
393.15
393.15
393.15
393.15
393.15
393.15
393.15
393.15
393.15
393.15
393.15
393.15
393.15
393.15
393.15
393.15
393.15
393.15
393.15
393.15
393.15
393.15
393.15
393.15
393.15
393.15
393.15
393.15
393.15
393.15
393.15
393.15
393.15
393.15
393.15
393.15
393.15
393.15
393.15
393.15
393.15
393.15
393.15
393.15
393.15
393.15
393.15
393.15
393.15
393.15
393.15
393.15
393.15
393.15
393.15
393.15
393.15
393.15
393.15
393.15
393.15
393.15
393.15
393.15
393.15
393.15
393.15
393.15
393.15
393.15
393.15
393.15
393.15
393.15
393.15
393.15
393.15
393.15
393.15
393.15
393.15
393.15
393.15
393.15
393.15
393.15
393.15
393.15
393.15
393.15
393.15
393.15
393.15
393.15
393.15
393.15
393.15
393.15
393.15
393.15
393.15
393.15
393.15
393.15
393.15
393.15
393.15
393.15
393.15
393.15
393.15
393.15
393.15
393.15
393.15
393.15
393.15
393.15
393.15
393.15
393.15
393.15
393.15
393.15
393.15
393.15
393.15
393.15
393.15
393.15
393.15
393.15
393.15
393.15
393.15
393.15
393.15
393.15
393.15
393.15
393.15
393.15
393.15
393.15
393.15
393.15
393.15
393.15
393.15
393.15
393.15
393.15
393.15
393.15
393.15
393.15
393.15
393.15
393.15
393.15
393.15
393.15
393.15
393.15
393.15
393.15
393.15
393.15
393.15
393.15
393.15
393.15
393.15
393.15
393.15
393.15
393.15
393.15
393.15
393.15
393.15
393.15
393.15
393.15
393.15
393.15
393.15
393.15
393.15
393.15
393.15
393.15
393.15
393.15
393.15
393.15
393.15
393.15
393.15
393.15
393.15
393.15
393.15
393.15
393.15
393.15
393.15
393.15
393.15
393.15
393.15
393.15
393.15
393.15
393.15
393.15
393.15
393.15
393.15
393.15
393.15
393.15
393.15
393.15
393.15
393.15
393.15
393.15
393.15
393.15
393.15
393.15
393.15
393.15
393.15
393.15
393.15
393.15
393.15
393.15
393.15
393.15
393.15
393.15
393.15
393.15
393.15
393.15
393.15
393.15
393.15
393.15
393.15
393.15
393.15
393.15
393.15
393.15
393.15
393.15
393.15
393.15
393.15
393.15
393.15
393.15
393.15
393.15
393.15
393.15
393.15
393.15
393.15
393.15
393.15
393.15
393.15
393.15
393.15
393.15
393.15
393.15
393.15
393.15
393.15
393.15
393.15
393.15
393.15
393.15
393.15
393.15
393.15
393.15
393.15
393.15
393.15
393.15
393.15
393.15
393.15
393.15
393.15
393.15
393.15
393.15
393.15
393.15
393.15
393.15
393.15
393.15
393.15
393.15
393.15
393.15
393.15
393.15
393.15
393.15
393.15
393.15
393.15
393.15
393.15
393.15
393.15
393.15
393.15
393.15
393.15
393.15
393.15
393.15
393.15
393.15
393.15
393.15
393.15
393.15
393.15
393.15
393.15
393.15
393.15
393.15
393.15
393.15
393.15
393.15
393.15
393.15
393.15
393.15
393.15
393.15
393.15
393.15
393.15
393.15
393.15
393.15
393.15
393.15
393.15
393.15
393.15
393.15
393.15
393.15
393.15
393.15
393.15
393.15
393.15
393.15
393.15
393.15
393.15
393.15
393.15
393.15
393.15
393.15
393.15
393.15
393.15
393.15
393.15
393.15
393.15
393.15
393.15
393.15
393.15
393.15
393.15
393.15
393.15
393.15
393.15
393.15
393.15
393.15
393.15
393.15
393.15
393.15
393.15
393.15
393.15
393.15
393.15
393.15
393.15
393.15
393.15
393.15
393.15
393.15
393.15
393.15
393.15
393.15
393.15
393.15
393.15
393.15
393.15
393.15
393.15
393.15
393.15
393.15
393.15
393.15
393.15
393.15
393.15
393.15
393.15
393.15
393.15
393.15
393.15
393.15
393.15
393.15
393.15
393.15
393.15
393.15
393.15
393.15
393.15
393.15
393.15
393.15
393.15
393.15
393.15
393.15
393.15
393.15
393.15
393.15
393.15
393.15
393.15
393.15
393.15
393.15
393.15
393.15
393.15
393.15
393.15
393.15
393.15
393.15
393.15
393.15
393.15
393.15
393.15
393.15
393.15
393.15
393.15
393.15
393.15
393.15
393.15
393.15
393.15
393.15
393.15
393.15
393.15
393.15
393.15
393.15
393.15
393.15
393.15
393.15
393.15
393.15
393.15
393.15
393.15
393.15
393.15
393.15
393.15
393.15
393.15
393.15
393.15
393.15
393.15
393.15
393.15
393.15
393.15
393.15
393.15
393.15
393.15
393.15
393.15
393.15
393.15
393.15
393.15
393.15
393.15
393.15
393.15
393.15
393.15
393.15
393.15
393.15
393.15
393.15
393.15
393.15
393.15
393.15
393.15
393.15
393.15
393.15
393.15
393.15
393.15
393.15
393.15
393.15
393.15
393.15
393.15
393.15
393.15
393.15
393.15
393.15
393.15
393.15
393.15
393.15
393.15
393.15
393.15
393.15
393.15
393.15
393.15
393.15
393.15
393.15
393.15
393.15
393.15
393.15
393.15
393.15
393.15
393.15
393.15
393.15
393.15
393.15
393.15
393.15
393.15
393.15
393.15
393.15
393.15
393.15
393.15
393.15
393.15
393.15
393.15
393.15
393.15
393.15
393.15
393.15
393.15
393.15
393.15
393.15
393.15
393.15
393.15
393.15
393.15
393.15
393.15
393.15
393.15
393.15
393.15
393.15
393.15
393.15
393.15
393.15
393.15
393.15
393.15
393.15
393.15
393.15
393.15
393.15
393.15
393.15
393.15
393.15
393.15
393.15
393.15
393.15
393.15
393.15
393.15
393.15
393.15
393.15
393.15
393.15
393.15
393.15
393.15
393.15
393.15
393.15
393.15
393.15
393.15
393.15
393.15
393.15
393.15
393.15
393.15
393.15
393.15
393.15
393.15
393.15
393.15
393.15
393.15
393.15
393.15
393.15
393.15
393.15
393.15
393.15
393.15
393.15
393.15
393.15
393.15
393.15
393.15
393.15
393.15
393.15
393.15
393.15
393.15
393.15
393.15
393.15
393.15
393.15
393.15
393.15
393.15
393.15
393.15
393.15
393.15
393.15
393.15
393.15
393.15
393.15
393.15
393.15
393.15
393.15
393.15
393.15
393.15
393.15
393.15
393.15
393.15
393.15
393.15
393.15
393.15
393.15
393.15
393.15
393.15
393.15
393.15
393.15
393.15
393.15
393.15
393.15
393.15
393.15
393.15
393.15
393.15
393.15
393.15
393.15
393.15
393.15
393.15
393.15
393.15
393.15
393.15
393.15
393.15
393.15
393.15
393.15
393.15
393.15
393.15
393.15
393.15
393.15
393.15
393.15
393.15
393.15
393.15
393.15
393.15
393.15
393.15
393.15
393.15
393.15
393.15
393.15
393.15
393.15
393.15
393.15
393.15
393.15
393.15
393.15
393.15
393.15
393.15
393.15
393.15
393.15
393.15
393.15
393.15
393.15
393.15
393.15
393.15
393.15
393.15
393.15
393.15
393.15
393.15
393.15
393.15
393.15
393.15
393.15
393.15
393.15
393.15
393.15
393.15
393.15
393.15
393.15
393.15
393.15
393.15
393.15
393.15
393.15
393.15
393.15
393.15
393.15
393.15
393.15
393.15
393.15
393.15
393.15
393.15
393.15
393.15
393.15
393.15
393.15
393.15
393.15
393.15
393.15
393.15
393.15
393.15
393.15
393.15
393.15
393.15
393.15
393.15
393.15
393.15
393.15
393.15
393.15
393.15
393.15
393.15
393.15
393.15
393.15
393.15
393.15
393.15
393.15
393.15
393.15
393.15
393.15
393.15
393.15
393.15
393.15
393.15
393.15
393.15
393.15
393.15
393.15
393.15
393.15
393.15
393.15
393.15
393.15
393.15
393.15
393.15