/*--------------------------------*- C++ -*----------------------------------*\
| =========                 |                                                 |
| \\      /  F ield         | OpenFOAM: The Open Source CFD Toolbox           |
|  \\    /   O peration     | Version:  2.1.0                                 |
|   \\  /    A nd           | Web:      www.OpenFOAM.org                      |
|    \\/     M anipulation  |                                                 |
\*---------------------------------------------------------------------------*/
FoamFile
{
    version     2.0;
    format      ascii;
    class       volVectorField;
    location    "0.49";
    object      U;
}
// * * * * * * * * * * * * * * * * * * * * * * * * * * * * * * * * * * * * * //

dimensions      [0 1 -1 0 0 0 0];

internalField   nonuniform List<vector> 
6400
(
(-1.3003 -4.23315e-05 0)
(-1.29913 -0.000496532 0)
(-1.29673 -0.000786539 0)
(-1.29339 -0.000934016 0)
(-1.28959 -0.00102114 0)
(-1.28549 -0.00107964 0)
(-1.2812 -0.00112185 0)
(-1.27675 -0.00115505 0)
(-1.27218 -0.00118308 0)
(-1.2675 -0.00120833 0)
(-1.26273 -0.00123206 0)
(-1.25786 -0.00125507 0)
(-1.2529 -0.00127786 0)
(-1.24784 -0.00130071 0)
(-1.2427 -0.00132391 0)
(-1.23746 -0.00134751 0)
(-1.23213 -0.00137167 0)
(-1.2267 -0.00139628 0)
(-1.22116 -0.00142143 0)
(-1.21553 -0.00144697 0)
(-1.2098 -0.00147299 0)
(-1.20395 -0.00149929 0)
(-1.19801 -0.00152605 0)
(-1.19195 -0.00155333 0)
(-1.18579 -0.00158078 0)
(-1.17952 -0.00160871 0)
(-1.17313 -0.00163826 0)
(-1.16662 -0.00166908 0)
(-1.15998 -0.00170091 0)
(-1.15322 -0.00173363 0)
(-1.14632 -0.0017674 0)
(-1.13929 -0.0018022 0)
(-1.13212 -0.00183821 0)
(-1.1248 -0.00187547 0)
(-1.11733 -0.00191409 0)
(-1.10971 -0.00195407 0)
(-1.10192 -0.00199552 0)
(-1.09397 -0.00203851 0)
(-1.08584 -0.00208318 0)
(-1.07753 -0.00212965 0)
(-1.06903 -0.00217828 0)
(-1.06034 -0.00222903 0)
(-1.05144 -0.00228197 0)
(-1.04232 -0.00233725 0)
(-1.03298 -0.00239491 0)
(-1.02341 -0.00245498 0)
(-1.0136 -0.00251749 0)
(-1.00353 -0.00258238 0)
(-0.993206 -0.00264953 0)
(-0.982608 -0.00271907 0)
(-0.971732 -0.00279068 0)
(-0.960573 -0.00286235 0)
(-0.949122 -0.00293783 0)
(-0.937359 -0.00301994 0)
(-0.925264 -0.00310634 0)
(-0.912819 -0.00319568 0)
(-0.90003 -0.00328323 0)
(-0.886899 -0.00336694 0)
(-0.873442 -0.00344877 0)
(-0.859658 -0.00353138 0)
(-0.845546 -0.00361582 0)
(-0.831095 -0.0037022 0)
(-0.816298 -0.00379119 0)
(-0.801143 -0.00388359 0)
(-0.785616 -0.00397952 0)
(-0.769701 -0.00407957 0)
(-0.753383 -0.00418404 0)
(-0.736642 -0.00429375 0)
(-0.719457 -0.00440913 0)
(-0.701804 -0.00453061 0)
(-0.68366 -0.00465852 0)
(-0.664996 -0.00479352 0)
(-0.645785 -0.00493608 0)
(-0.625995 -0.00508705 0)
(-0.605592 -0.00524734 0)
(-0.584536 -0.00541815 0)
(-0.562782 -0.00560105 0)
(-0.54028 -0.00579802 0)
(-0.516968 -0.00601187 0)
(-0.492772 -0.00624683 0)
(-0.467599 -0.00650812 0)
(-0.441331 -0.00680219 0)
(-0.413825 -0.0071374 0)
(-0.384899 -0.00752305 0)
(-0.354342 -0.00796644 0)
(-0.321921 -0.00847016 0)
(-0.28741 -0.00902956 0)
(-0.250631 -0.00962407 0)
(-0.211549 -0.0102023 0)
(-0.170449 -0.0106529 0)
(-0.12828 -0.0107488 0)
(-0.0873156 -0.0100441 0)
(-0.0517027 -0.00802954 0)
(-0.0265565 -0.00472525 0)
(-0.0154678 -0.000896067 0)
(-0.0200963 0.00323382 0)
(-0.0488878 0.0113536 0)
(-0.12901 0.0292122 0)
(-0.328799 0.0711592 0)
(-0.948357 0.198978 0)
(-1.56699 -0.000317742 0)
(-1.56383 -0.00163807 0)
(-1.56167 -0.002395 0)
(-1.55818 -0.00279755 0)
(-1.55435 -0.00304108 0)
(-1.55025 -0.00320527 0)
(-1.546 -0.00332388 0)
(-1.54161 -0.00341702 0)
(-1.53713 -0.00349564 0)
(-1.53255 -0.00356631 0)
(-1.52789 -0.00363279 0)
(-1.52315 -0.00369717 0)
(-1.51833 -0.00376102 0)
(-1.51344 -0.00382505 0)
(-1.50847 -0.00389024 0)
(-1.50342 -0.00395664 0)
(-1.49829 -0.00402475 0)
(-1.49307 -0.00409423 0)
(-1.48777 -0.00416536 0)
(-1.48238 -0.00423773 0)
(-1.4769 -0.00431157 0)
(-1.47132 -0.00438631 0)
(-1.46566 -0.0044622 0)
(-1.4599 -0.00453959 0)
(-1.45404 -0.00461701 0)
(-1.44809 -0.0046948 0)
(-1.44205 -0.0047767 0)
(-1.43591 -0.00486159 0)
(-1.42967 -0.00494875 0)
(-1.42334 -0.00503808 0)
(-1.4169 -0.00512993 0)
(-1.41036 -0.0052244 0)
(-1.40371 -0.00532185 0)
(-1.39695 -0.00542243 0)
(-1.39008 -0.00552642 0)
(-1.3831 -0.00563386 0)
(-1.376 -0.00574505 0)
(-1.36878 -0.00586023 0)
(-1.36144 -0.00597969 0)
(-1.35397 -0.00610348 0)
(-1.34636 -0.00623251 0)
(-1.33862 -0.00636685 0)
(-1.33074 -0.00650674 0)
(-1.32272 -0.0066526 0)
(-1.31454 -0.0068046 0)
(-1.30621 -0.00696299 0)
(-1.29771 -0.00712797 0)
(-1.28904 -0.00729963 0)
(-1.28019 -0.00747788 0)
(-1.27115 -0.00766318 0)
(-1.26191 -0.00785522 0)
(-1.25247 -0.00804878 0)
(-1.24283 -0.00824665 0)
(-1.233 -0.00845242 0)
(-1.223 -0.00866367 0)
(-1.21283 -0.00887951 0)
(-1.20251 -0.00909449 0)
(-1.19201 -0.00930443 0)
(-1.18133 -0.00951128 0)
(-1.17047 -0.0097199 0)
(-1.15942 -0.00993268 0)
(-1.14819 -0.0101503 0)
(-1.13677 -0.0103738 0)
(-1.12516 -0.0106046 0)
(-1.11336 -0.0108432 0)
(-1.10135 -0.0110907 0)
(-1.08915 -0.0113481 0)
(-1.07674 -0.011617 0)
(-1.06412 -0.0118988 0)
(-1.05128 -0.0121949 0)
(-1.03821 -0.0125065 0)
(-1.02489 -0.0128356 0)
(-1.01133 -0.013184 0)
(-0.997482 -0.0135543 0)
(-0.983339 -0.0139495 0)
(-0.96887 -0.0143733 0)
(-0.954039 -0.0148304 0)
(-0.938807 -0.0153265 0)
(-0.923126 -0.0158689 0)
(-0.906939 -0.0164686 0)
(-0.890181 -0.0171386 0)
(-0.872774 -0.0178938 0)
(-0.854633 -0.0187531 0)
(-0.835663 -0.0197369 0)
(-0.815761 -0.0208615 0)
(-0.794823 -0.0221318 0)
(-0.772755 -0.0235324 0)
(-0.749505 -0.0250075 0)
(-0.725115 -0.0264254 0)
(-0.699784 -0.0275151 0)
(-0.673969 -0.0277519 0)
(-0.648438 -0.026183 0)
(-0.624562 -0.021584 0)
(-0.605255 -0.0134193 0)
(-0.599481 -0.000875466 0)
(-0.614858 0.0133128 0)
(-0.663426 0.0398801 0)
(-0.767611 0.0921363 0)
(-0.970695 0.204434 0)
(-1.45948 0.526482 0)
(-1.71633 -0.000879126 0)
(-1.71227 -0.00285937 0)
(-1.71095 -0.00394594 0)
(-1.70801 -0.004551 0)
(-1.70477 -0.00492392 0)
(-1.70132 -0.0051756 0)
(-1.69774 -0.00535632 0)
(-1.69406 -0.00549772 0)
(-1.69029 -0.005616 0)
(-1.68647 -0.00572201 0)
(-1.68259 -0.00582106 0)
(-1.67866 -0.0059169 0)
(-1.67466 -0.0060116 0)
(-1.67063 -0.00610678 0)
(-1.66653 -0.00620366 0)
(-1.66239 -0.0063027 0)
(-1.65819 -0.00640437 0)
(-1.65393 -0.00650849 0)
(-1.64961 -0.0066153 0)
(-1.64524 -0.00672451 0)
(-1.6408 -0.00683639 0)
(-1.63629 -0.00695041 0)
(-1.63171 -0.00706668 0)
(-1.62706 -0.00718601 0)
(-1.62232 -0.00730649 0)
(-1.61751 -0.00742659 0)
(-1.61262 -0.00754924 0)
(-1.60767 -0.00767373 0)
(-1.60264 -0.0078001 0)
(-1.59756 -0.00792888 0)
(-1.59241 -0.0080606 0)
(-1.58721 -0.00819552 0)
(-1.58194 -0.00833401 0)
(-1.57661 -0.00847631 0)
(-1.57121 -0.0086227 0)
(-1.56576 -0.00877331 0)
(-1.56024 -0.00892835 0)
(-1.55467 -0.00908823 0)
(-1.54903 -0.00925343 0)
(-1.54334 -0.00942339 0)
(-1.53758 -0.00959922 0)
(-1.53177 -0.00978118 0)
(-1.5259 -0.00996945 0)
(-1.51998 -0.0101646 0)
(-1.51401 -0.0103668 0)
(-1.50799 -0.0105764 0)
(-1.50193 -0.0107937 0)
(-1.49581 -0.0110189 0)
(-1.48966 -0.011252 0)
(-1.48348 -0.0114932 0)
(-1.47725 -0.011742 0)
(-1.471 -0.0119943 0)
(-1.46474 -0.012248 0)
(-1.45845 -0.0125011 0)
(-1.45215 -0.0127535 0)
(-1.44584 -0.0130063 0)
(-1.43956 -0.0132608 0)
(-1.43328 -0.0135146 0)
(-1.42701 -0.0137659 0)
(-1.42074 -0.0140176 0)
(-1.41448 -0.0142717 0)
(-1.40824 -0.0145292 0)
(-1.40205 -0.0147909 0)
(-1.39589 -0.015057 0)
(-1.3898 -0.0153283 0)
(-1.38377 -0.0156055 0)
(-1.37784 -0.0158895 0)
(-1.37201 -0.0161815 0)
(-1.3663 -0.0164829 0)
(-1.36075 -0.0167955 0)
(-1.35536 -0.017121 0)
(-1.35015 -0.0174622 0)
(-1.34516 -0.0178214 0)
(-1.3404 -0.0182026 0)
(-1.33588 -0.0186105 0)
(-1.33163 -0.0190507 0)
(-1.32765 -0.0195308 0)
(-1.32396 -0.0200591 0)
(-1.32055 -0.0206465 0)
(-1.31742 -0.0213084 0)
(-1.31455 -0.0220628 0)
(-1.31192 -0.0229289 0)
(-1.30951 -0.0239288 0)
(-1.30727 -0.0250855 0)
(-1.30517 -0.0264171 0)
(-1.30318 -0.0279278 0)
(-1.30126 -0.0295919 0)
(-1.29943 -0.0313275 0)
(-1.29773 -0.0329553 0)
(-1.29632 -0.0341279 0)
(-1.29543 -0.0342191 0)
(-1.29542 -0.0321849 0)
(-1.29678 -0.0265389 0)
(-1.30102 -0.0157957 0)
(-1.31009 0.00236519 0)
(-1.32729 0.0264756 0)
(-1.36684 0.0697087 0)
(-1.4432 0.149798 0)
(-1.58723 0.311603 0)
(-1.8583 0.719497 0)
(-1.85079 -0.00153543 0)
(-1.84645 -0.00385229 0)
(-1.84616 -0.00517499 0)
(-1.84412 -0.00594001 0)
(-1.84186 -0.00641612 0)
(-1.83944 -0.00673538 0)
(-1.83692 -0.00696152 0)
(-1.83435 -0.0071362 0)
(-1.83172 -0.00727962 0)
(-1.82908 -0.00740678 0)
(-1.82639 -0.00752377 0)
(-1.82371 -0.00763628 0)
(-1.82098 -0.00774632 0)
(-1.81827 -0.0078568 0)
(-1.81552 -0.00796876 0)
(-1.81277 -0.00808339 0)
(-1.81 -0.00820075 0)
(-1.80724 -0.0083211 0)
(-1.80445 -0.00844436 0)
(-1.80166 -0.00857061 0)
(-1.79885 -0.00870009 0)
(-1.79604 -0.00883249 0)
(-1.79322 -0.00896772 0)
(-1.79039 -0.00910588 0)
(-1.78755 -0.00924687 0)
(-1.78472 -0.00938895 0)
(-1.78188 -0.00953073 0)
(-1.77903 -0.00967181 0)
(-1.77617 -0.00981337 0)
(-1.77332 -0.00995653 0)
(-1.77047 -0.0101019 0)
(-1.76762 -0.0102499 0)
(-1.76478 -0.0104006 0)
(-1.76195 -0.0105545 0)
(-1.75914 -0.0107115 0)
(-1.75634 -0.0108718 0)
(-1.75356 -0.0110352 0)
(-1.75082 -0.0112021 0)
(-1.7481 -0.011373 0)
(-1.74542 -0.0115471 0)
(-1.74279 -0.0117252 0)
(-1.7402 -0.0119073 0)
(-1.73767 -0.0120933 0)
(-1.73521 -0.0122835 0)
(-1.73282 -0.0124779 0)
(-1.73051 -0.0126763 0)
(-1.72831 -0.0128788 0)
(-1.72621 -0.0130852 0)
(-1.72423 -0.0132952 0)
(-1.72239 -0.0135081 0)
(-1.7207 -0.0137222 0)
(-1.71918 -0.0139377 0)
(-1.71784 -0.0141559 0)
(-1.71665 -0.0143726 0)
(-1.71562 -0.0145847 0)
(-1.71475 -0.0147925 0)
(-1.71405 -0.0149987 0)
(-1.71354 -0.0152025 0)
(-1.71323 -0.0154009 0)
(-1.71313 -0.0155947 0)
(-1.71325 -0.0157846 0)
(-1.71362 -0.015971 0)
(-1.71425 -0.0161545 0)
(-1.71515 -0.0163351 0)
(-1.71635 -0.016513 0)
(-1.71786 -0.0166887 0)
(-1.71969 -0.0168628 0)
(-1.72187 -0.0170361 0)
(-1.72441 -0.0172099 0)
(-1.72733 -0.0173864 0)
(-1.73063 -0.0175677 0)
(-1.73432 -0.0177574 0)
(-1.73842 -0.017959 0)
(-1.74292 -0.0181779 0)
(-1.74781 -0.018421 0)
(-1.75309 -0.0186963 0)
(-1.75874 -0.0190143 0)
(-1.76474 -0.0193873 0)
(-1.77104 -0.0198285 0)
(-1.77761 -0.0203579 0)
(-1.78441 -0.0209983 0)
(-1.79136 -0.0217716 0)
(-1.79843 -0.0227015 0)
(-1.80554 -0.0238111 0)
(-1.81265 -0.0251165 0)
(-1.81972 -0.0266179 0)
(-1.82673 -0.0282795 0)
(-1.83368 -0.0300006 0)
(-1.84062 -0.0315736 0)
(-1.84764 -0.0326175 0)
(-1.85483 -0.032483 0)
(-1.8622 -0.0301407 0)
(-1.86974 -0.024047 0)
(-1.87799 -0.0123409 0)
(-1.88733 0.00673687 0)
(-1.89865 0.0366332 0)
(-1.92149 0.0894983 0)
(-1.96292 0.186079 0)
(-2.0323 0.375559 0)
(-2.13329 0.778276 0)
(-1.98578 -0.00210501 0)
(-1.98181 -0.00448517 0)
(-1.98267 -0.00591251 0)
(-1.98186 -0.00677 0)
(-1.98104 -0.00730953 0)
(-1.9801 -0.00766619 0)
(-1.97916 -0.00791459 0)
(-1.9782 -0.0081009 0)
(-1.97725 -0.00824993 0)
(-1.97631 -0.00837824 0)
(-1.97539 -0.00849367 0)
(-1.97451 -0.00860225 0)
(-1.97365 -0.00870677 0)
(-1.97284 -0.00881043 0)
(-1.97205 -0.00891472 0)
(-1.97132 -0.00902079 0)
(-1.97062 -0.00912863 0)
(-1.96999 -0.00923838 0)
(-1.96939 -0.00934987 0)
(-1.96886 -0.00946303 0)
(-1.96839 -0.00957811 0)
(-1.96798 -0.00969475 0)
(-1.96765 -0.00981205 0)
(-1.9674 -0.00992922 0)
(-1.96722 -0.0100481 0)
(-1.96715 -0.0101697 0)
(-1.96716 -0.0102923 0)
(-1.96725 -0.010414 0)
(-1.96741 -0.0105348 0)
(-1.96766 -0.0106555 0)
(-1.96799 -0.0107767 0)
(-1.96842 -0.0108987 0)
(-1.96894 -0.0110215 0)
(-1.96956 -0.0111453 0)
(-1.97029 -0.0112699 0)
(-1.97113 -0.0113953 0)
(-1.97208 -0.0115214 0)
(-1.97316 -0.011648 0)
(-1.97437 -0.0117753 0)
(-1.97572 -0.0119031 0)
(-1.97721 -0.0120317 0)
(-1.97885 -0.0121605 0)
(-1.98064 -0.0122894 0)
(-1.9826 -0.0124185 0)
(-1.98474 -0.0125475 0)
(-1.98705 -0.012676 0)
(-1.98955 -0.012804 0)
(-1.99224 -0.012931 0)
(-1.99512 -0.0130564 0)
(-1.99822 -0.0131798 0)
(-2.00151 -0.0132997 0)
(-2.00502 -0.0134177 0)
(-2.00874 -0.0135385 0)
(-2.01268 -0.0136592 0)
(-2.01684 -0.0137747 0)
(-2.02121 -0.0138837 0)
(-2.02582 -0.0139863 0)
(-2.03065 -0.0140817 0)
(-2.03572 -0.0141683 0)
(-2.04103 -0.0142467 0)
(-2.04657 -0.0143172 0)
(-2.05234 -0.0143803 0)
(-2.05836 -0.0144367 0)
(-2.0646 -0.014487 0)
(-2.07107 -0.0145317 0)
(-2.07775 -0.0145717 0)
(-2.08466 -0.0146078 0)
(-2.09177 -0.0146416 0)
(-2.09907 -0.0146747 0)
(-2.10656 -0.01471 0)
(-2.11423 -0.0147503 0)
(-2.12206 -0.0148001 0)
(-2.13005 -0.0148644 0)
(-2.13817 -0.0149499 0)
(-2.14642 -0.0150647 0)
(-2.15479 -0.0152187 0)
(-2.16325 -0.0154241 0)
(-2.17181 -0.0156965 0)
(-2.18043 -0.0160488 0)
(-2.18912 -0.016503 0)
(-2.19786 -0.0170863 0)
(-2.20663 -0.01782 0)
(-2.21543 -0.0187274 0)
(-2.22424 -0.0198298 0)
(-2.23306 -0.0211396 0)
(-2.2419 -0.0226511 0)
(-2.25076 -0.0243215 0)
(-2.25967 -0.02604 0)
(-2.26862 -0.027589 0)
(-2.27763 -0.0285889 0)
(-2.28659 -0.0284196 0)
(-2.29527 -0.02614 0)
(-2.3031 -0.0203003 0)
(-2.31026 -0.00911935 0)
(-2.31554 0.00958022 0)
(-2.31845 0.0411971 0)
(-2.32318 0.0974725 0)
(-2.32933 0.199603 0)
(-2.32748 0.392971 0)
(-2.31001 0.744689 0)
(-2.12804 -0.00242064 0)
(-2.12513 -0.00463302 0)
(-2.12719 -0.00600785 0)
(-2.12796 -0.00685751 0)
(-2.12889 -0.00739524 0)
(-2.12984 -0.00774327 0)
(-2.1309 -0.00797916 0)
(-2.132 -0.00814736 0)
(-2.13318 -0.00827571 0)
(-2.13442 -0.0083799 0)
(-2.13574 -0.00846942 0)
(-2.13714 -0.00854941 0)
(-2.13862 -0.0086237 0)
(-2.14019 -0.00869512 0)
(-2.14185 -0.00876607 0)
(-2.1436 -0.00883707 0)
(-2.14545 -0.00890834 0)
(-2.1474 -0.00897953 0)
(-2.14944 -0.00905058 0)
(-2.1516 -0.00912112 0)
(-2.15386 -0.00919137 0)
(-2.15624 -0.00926156 0)
(-2.15874 -0.00932868 0)
(-2.16136 -0.00939299 0)
(-2.1641 -0.00945813 0)
(-2.16696 -0.00952529 0)
(-2.16996 -0.00959426 0)
(-2.17308 -0.00966241 0)
(-2.17634 -0.00972884 0)
(-2.17973 -0.00979365 0)
(-2.18326 -0.00985728 0)
(-2.18693 -0.00991984 0)
(-2.19073 -0.00998157 0)
(-2.19469 -0.0100424 0)
(-2.19878 -0.0101025 0)
(-2.20303 -0.0101613 0)
(-2.20742 -0.0102191 0)
(-2.21196 -0.0102759 0)
(-2.21664 -0.0103315 0)
(-2.22148 -0.0103857 0)
(-2.22647 -0.0104392 0)
(-2.2316 -0.0104913 0)
(-2.23688 -0.0105421 0)
(-2.24231 -0.0105917 0)
(-2.24788 -0.0106401 0)
(-2.25358 -0.010687 0)
(-2.25943 -0.0107323 0)
(-2.26541 -0.010776 0)
(-2.27152 -0.010818 0)
(-2.27775 -0.0108578 0)
(-2.2841 -0.0108952 0)
(-2.29057 -0.0109319 0)
(-2.29714 -0.0109706 0)
(-2.30382 -0.0110097 0)
(-2.3106 -0.0110457 0)
(-2.31746 -0.0110766 0)
(-2.3244 -0.0111011 0)
(-2.33142 -0.0111181 0)
(-2.33852 -0.0111273 0)
(-2.34568 -0.0111295 0)
(-2.3529 -0.0111253 0)
(-2.36017 -0.0111155 0)
(-2.3675 -0.011101 0)
(-2.37487 -0.0110823 0)
(-2.38228 -0.0110603 0)
(-2.38973 -0.011036 0)
(-2.39721 -0.0110102 0)
(-2.40473 -0.0109846 0)
(-2.41228 -0.0109612 0)
(-2.41986 -0.0109424 0)
(-2.42747 -0.0109316 0)
(-2.43512 -0.0109327 0)
(-2.4428 -0.0109507 0)
(-2.45052 -0.0109925 0)
(-2.45828 -0.0110663 0)
(-2.46608 -0.0111818 0)
(-2.47393 -0.011351 0)
(-2.48183 -0.0115902 0)
(-2.48977 -0.0119115 0)
(-2.4978 -0.0123341 0)
(-2.50589 -0.0128853 0)
(-2.51408 -0.0135872 0)
(-2.52237 -0.0144624 0)
(-2.53077 -0.0155306 0)
(-2.53931 -0.0168017 0)
(-2.548 -0.0182682 0)
(-2.55684 -0.0198882 0)
(-2.56584 -0.0215533 0)
(-2.57497 -0.0230545 0)
(-2.58415 -0.0240425 0)
(-2.59316 -0.0239658 0)
(-2.60156 -0.0220097 0)
(-2.60846 -0.0169785 0)
(-2.61371 -0.00719632 0)
(-2.61491 0.00993693 0)
(-2.60984 0.0400807 0)
(-2.59829 0.0940892 0)
(-2.57282 0.191862 0)
(-2.51139 0.36927 0)
(-2.41536 0.652909 0)
(-2.27483 -0.00237366 0)
(-2.27323 -0.00420803 0)
(-2.27646 -0.00537701 0)
(-2.27884 -0.00611307 0)
(-2.28145 -0.00657642 0)
(-2.28428 -0.00686715 0)
(-2.28722 -0.00705463 0)
(-2.29031 -0.00717732 0)
(-2.29348 -0.00726179 0)
(-2.29677 -0.00732209 0)
(-2.30014 -0.00736739 0)
(-2.30363 -0.00740204 0)
(-2.3072 -0.00742997 0)
(-2.31088 -0.00745408 0)
(-2.31465 -0.00747747 0)
(-2.31854 -0.00750023 0)
(-2.3225 -0.00752269 0)
(-2.32658 -0.00754424 0)
(-2.33074 -0.00756499 0)
(-2.33502 -0.00758446 0)
(-2.33937 -0.00760298 0)
(-2.34383 -0.00762136 0)
(-2.34836 -0.00763544 0)
(-2.35302 -0.00764482 0)
(-2.35775 -0.00765361 0)
(-2.3626 -0.00766241 0)
(-2.36755 -0.0076717 0)
(-2.37261 -0.00768 0)
(-2.37778 -0.00768667 0)
(-2.38305 -0.00769156 0)
(-2.38842 -0.00769525 0)
(-2.3939 -0.00769787 0)
(-2.39947 -0.00769999 0)
(-2.40514 -0.00770156 0)
(-2.41089 -0.00770295 0)
(-2.41674 -0.00770382 0)
(-2.42266 -0.00770464 0)
(-2.42867 -0.00770538 0)
(-2.43475 -0.00770631 0)
(-2.4409 -0.00770714 0)
(-2.44711 -0.0077086 0)
(-2.45338 -0.00771056 0)
(-2.45969 -0.00771308 0)
(-2.46606 -0.00771628 0)
(-2.47246 -0.00772031 0)
(-2.47889 -0.00772503 0)
(-2.48535 -0.0077304 0)
(-2.49184 -0.0077363 0)
(-2.49835 -0.00774286 0)
(-2.50486 -0.00774957 0)
(-2.51139 -0.00775678 0)
(-2.51792 -0.00776539 0)
(-2.52444 -0.00777798 0)
(-2.53097 -0.00779331 0)
(-2.53748 -0.00780849 0)
(-2.54399 -0.0078213 0)
(-2.55048 -0.00782907 0)
(-2.55696 -0.00783005 0)
(-2.56343 -0.00782426 0)
(-2.56989 -0.0078126 0)
(-2.57633 -0.00779561 0)
(-2.58277 -0.00777391 0)
(-2.5892 -0.00774776 0)
(-2.59564 -0.00771736 0)
(-2.60207 -0.00768354 0)
(-2.6085 -0.00764656 0)
(-2.61495 -0.00760714 0)
(-2.62142 -0.00756655 0)
(-2.62791 -0.00752631 0)
(-2.63443 -0.00748863 0)
(-2.641 -0.00745646 0)
(-2.64761 -0.00743338 0)
(-2.65429 -0.00742407 0)
(-2.66103 -0.00743501 0)
(-2.66785 -0.00747469 0)
(-2.67476 -0.00755255 0)
(-2.68178 -0.00767996 0)
(-2.68892 -0.00787119 0)
(-2.69616 -0.00814136 0)
(-2.7036 -0.00850918 0)
(-2.71117 -0.00899763 0)
(-2.71889 -0.0096295 0)
(-2.7268 -0.0104262 0)
(-2.73492 -0.0114068 0)
(-2.74327 -0.0125802 0)
(-2.75187 -0.0139393 0)
(-2.76073 -0.0154502 0)
(-2.76983 -0.0170175 0)
(-2.77911 -0.018452 0)
(-2.7884 -0.0194543 0)
(-2.7974 -0.019567 0)
(-2.80553 -0.0181276 0)
(-2.81167 -0.0142647 0)
(-2.81515 -0.00645945 0)
(-2.81313 0.0079311 0)
(-2.8011 0.0339625 0)
(-2.77546 0.0808448 0)
(-2.72319 0.165541 0)
(-2.61569 0.313231 0)
(-2.46994 0.526024 0)
(-2.40815 -0.0019781 0)
(-2.40756 -0.00327231 0)
(-2.41155 -0.00413495 0)
(-2.415 -0.00468284 0)
(-2.41866 -0.00502239 0)
(-2.42268 -0.00522668 0)
(-2.42674 -0.00534817 0)
(-2.43103 -0.00541641 0)
(-2.43532 -0.00545274 0)
(-2.43978 -0.00546872 0)
(-2.44423 -0.00547161 0)
(-2.44882 -0.00546479 0)
(-2.45342 -0.00545138 0)
(-2.45814 -0.00543469 0)
(-2.46286 -0.00541847 0)
(-2.46769 -0.0054024 0)
(-2.47253 -0.00538661 0)
(-2.47748 -0.00537046 0)
(-2.48244 -0.00535412 0)
(-2.48749 -0.00533712 0)
(-2.49255 -0.0053196 0)
(-2.4977 -0.00530102 0)
(-2.50285 -0.00528052 0)
(-2.50813 -0.00525735 0)
(-2.51338 -0.00523252 0)
(-2.5187 -0.00520706 0)
(-2.52402 -0.00518242 0)
(-2.5294 -0.00515795 0)
(-2.53477 -0.0051333 0)
(-2.54019 -0.0051081 0)
(-2.5456 -0.0050834 0)
(-2.55106 -0.00505899 0)
(-2.5565 -0.00503594 0)
(-2.56197 -0.00501393 0)
(-2.56742 -0.00499376 0)
(-2.5729 -0.0049747 0)
(-2.57835 -0.00495775 0)
(-2.58381 -0.00494224 0)
(-2.58926 -0.00492909 0)
(-2.59471 -0.00491791 0)
(-2.60013 -0.00490913 0)
(-2.60555 -0.00490261 0)
(-2.61095 -0.00489841 0)
(-2.61634 -0.00489654 0)
(-2.62171 -0.00489702 0)
(-2.62708 -0.00489959 0)
(-2.63242 -0.00490404 0)
(-2.63776 -0.00491002 0)
(-2.64308 -0.00491764 0)
(-2.64839 -0.00492624 0)
(-2.65369 -0.00493616 0)
(-2.65899 -0.00494761 0)
(-2.66428 -0.0049632 0)
(-2.66957 -0.00498248 0)
(-2.67486 -0.0050018 0)
(-2.68015 -0.00501895 0)
(-2.68545 -0.00502998 0)
(-2.69077 -0.00503211 0)
(-2.6961 -0.0050258 0)
(-2.70145 -0.00501231 0)
(-2.70683 -0.00499205 0)
(-2.71224 -0.0049653 0)
(-2.71769 -0.00493205 0)
(-2.72318 -0.00489221 0)
(-2.72873 -0.00484605 0)
(-2.73432 -0.00479368 0)
(-2.73998 -0.00473556 0)
(-2.7457 -0.0046725 0)
(-2.7515 -0.00460573 0)
(-2.75739 -0.00453715 0)
(-2.76337 -0.00446931 0)
(-2.76946 -0.00440557 0)
(-2.77566 -0.00435026 0)
(-2.78199 -0.0043093 0)
(-2.78846 -0.00429144 0)
(-2.79507 -0.00430571 0)
(-2.80186 -0.00436267 0)
(-2.80882 -0.00447406 0)
(-2.81596 -0.00465813 0)
(-2.82333 -0.00493562 0)
(-2.83091 -0.00532743 0)
(-2.83873 -0.00585464 0)
(-2.84681 -0.00653452 0)
(-2.85516 -0.00738663 0)
(-2.86381 -0.00842036 0)
(-2.87279 -0.00962984 0)
(-2.88208 -0.010996 0)
(-2.89164 -0.0124478 0)
(-2.90135 -0.0138204 0)
(-2.91103 -0.0148788 0)
(-2.92026 -0.0152764 0)
(-2.92834 -0.0145261 0)
(-2.93411 -0.0120475 0)
(-2.93612 -0.00668858 0)
(-2.93192 0.00385951 0)
(-2.91426 0.0236341 0)
(-2.87752 0.0594075 0)
(-2.8045 0.124073 0)
(-2.66444 0.233562 0)
(-2.48904 0.379142 0)
(-2.50963 -0.00128229 0)
(-2.50991 -0.00202127 0)
(-2.51407 -0.00254263 0)
(-2.51795 -0.00287248 0)
(-2.52194 -0.00307298 0)
(-2.52638 -0.00318944 0)
(-2.53073 -0.00325205 0)
(-2.53536 -0.00327902 0)
(-2.53985 -0.0032846 0)
(-2.54454 -0.0032763 0)
(-2.54908 -0.00325879 0)
(-2.55379 -0.00323381 0)
(-2.55834 -0.00320308 0)
(-2.56304 -0.0031702 0)
(-2.5676 -0.00313998 0)
(-2.57229 -0.00311117 0)
(-2.57684 -0.00308339 0)
(-2.58149 -0.00305603 0)
(-2.58603 -0.00302908 0)
(-2.59066 -0.00300208 0)
(-2.59517 -0.00297483 0)
(-2.59977 -0.00294552 0)
(-2.60425 -0.00291692 0)
(-2.60882 -0.00289071 0)
(-2.61327 -0.00286524 0)
(-2.61776 -0.00284018 0)
(-2.62215 -0.00281678 0)
(-2.62658 -0.00279476 0)
(-2.63091 -0.00277365 0)
(-2.63527 -0.00275269 0)
(-2.63954 -0.00273329 0)
(-2.64383 -0.00271504 0)
(-2.64804 -0.00269892 0)
(-2.65227 -0.00268443 0)
(-2.65643 -0.00267239 0)
(-2.6606 -0.00266185 0)
(-2.66471 -0.00265378 0)
(-2.66882 -0.00264713 0)
(-2.67289 -0.00264318 0)
(-2.67697 -0.00264101 0)
(-2.68101 -0.00264113 0)
(-2.68506 -0.00264318 0)
(-2.68908 -0.00264696 0)
(-2.69311 -0.00265262 0)
(-2.69713 -0.00265985 0)
(-2.70115 -0.00266834 0)
(-2.70518 -0.00267769 0)
(-2.70922 -0.00268767 0)
(-2.71326 -0.00269775 0)
(-2.71733 -0.00270765 0)
(-2.72141 -0.00271725 0)
(-2.72552 -0.00272669 0)
(-2.72967 -0.00273843 0)
(-2.73384 -0.00275403 0)
(-2.73805 -0.00276796 0)
(-2.74229 -0.00277865 0)
(-2.74658 -0.00278105 0)
(-2.75092 -0.0027705 0)
(-2.75531 -0.00274867 0)
(-2.75977 -0.00271762 0)
(-2.76429 -0.00267787 0)
(-2.76888 -0.0026294 0)
(-2.77355 -0.00257207 0)
(-2.7783 -0.00250564 0)
(-2.78314 -0.00242987 0)
(-2.78807 -0.00234471 0)
(-2.7931 -0.00225052 0)
(-2.79824 -0.00214773 0)
(-2.80349 -0.00203727 0)
(-2.80887 -0.00192072 0)
(-2.81438 -0.0018003 0)
(-2.82003 -0.00167906 0)
(-2.82584 -0.00156114 0)
(-2.83181 -0.00145199 0)
(-2.83795 -0.00135939 0)
(-2.84428 -0.00129238 0)
(-2.85083 -0.00126135 0)
(-2.85759 -0.00127732 0)
(-2.86459 -0.00135811 0)
(-2.87186 -0.00152333 0)
(-2.8794 -0.00179254 0)
(-2.88724 -0.0021887 0)
(-2.89542 -0.00272444 0)
(-2.90396 -0.00342054 0)
(-2.91288 -0.00428956 0)
(-2.92221 -0.00532497 0)
(-2.93195 -0.0065262 0)
(-2.94201 -0.00786686 0)
(-2.95228 -0.00919701 0)
(-2.96252 -0.0103604 0)
(-2.9723 -0.0111297 0)
(-2.98086 -0.0112098 0)
(-2.98701 -0.0102546 0)
(-2.98883 -0.0076438 0)
(-2.98376 -0.00176282 0)
(-2.96429 0.0100492 0)
(-2.92071 0.0318151 0)
(-2.83507 0.0714481 0)
(-2.67572 0.137644 0)
(-2.48531 0.221226 0)
(-2.55914 -0.000368497 0)
(-2.55976 -0.000649671 0)
(-2.56374 -0.000834136 0)
(-2.56756 -0.000948146 0)
(-2.57141 -0.00101898 0)
(-2.57572 -0.00106306 0)
(-2.57986 -0.00108774 0)
(-2.58428 -0.0010961 0)
(-2.58846 -0.00109624 0)
(-2.59285 -0.00109023 0)
(-2.59698 -0.00107984 0)
(-2.60128 -0.00106463 0)
(-2.60534 -0.00104447 0)
(-2.60954 -0.00102274 0)
(-2.6135 -0.00100675 0)
(-2.61759 -0.000992835 0)
(-2.62146 -0.000980124 0)
(-2.62543 -0.000968094 0)
(-2.62921 -0.000956399 0)
(-2.63307 -0.000944708 0)
(-2.63675 -0.000932546 0)
(-2.64052 -0.000918825 -1.08007e-41)
(-2.64411 -0.000906314 0)
(-2.64777 -0.000897236 0)
(-2.65128 -0.000889876 0)
(-2.65486 -0.000883302 0)
(-2.6583 -0.000877915 0)
(-2.6618 -0.000874012 0)
(-2.66517 -0.000870255 0)
(-2.6686 -0.000865619 0)
(-2.67193 -0.000861634 0)
(-2.6753 -0.000858543 0)
(-2.67858 -0.000856405 0)
(-2.68191 -0.000855165 0)
(-2.68516 -0.000854903 0)
(-2.68845 -0.000855488 0)
(-2.69169 -0.000856842 0)
(-2.69496 -0.000858675 0)
(-2.6982 -0.000861827 0)
(-2.70145 -0.000865275 0)
(-2.7047 -0.000869608 0)
(-2.70795 -0.000874403 0)
(-2.71121 -0.00087936 0)
(-2.71449 -0.000884598 0)
(-2.71778 -0.000889775 0)
(-2.72109 -0.000894513 0)
(-2.72442 -0.00089842 0)
(-2.72778 -0.000901395 0)
(-2.73116 -0.000902429 0)
(-2.73457 -0.000901504 0)
(-2.73802 -0.00089818 0)
(-2.74151 -0.000892599 0)
(-2.74505 -0.000886056 0)
(-2.74863 -0.000886095 0)
(-2.75226 -0.000881227 0)
(-2.75594 -0.000872608 0)
(-2.75967 -0.000854642 0)
(-2.76345 -0.000817981 0)
(-2.76731 -0.000767088 0)
(-2.77123 -0.000705479 0)
(-2.77523 -0.000633636 0)
(-2.77931 -0.000551215 0)
(-2.78347 -0.000457837 0)
(-2.78772 -0.000352981 0)
(-2.79206 -0.000236261 0)
(-2.7965 -0.000107456 0)
(-2.80105 3.33725e-05 0)
(-2.80571 0.000186025 0)
(-2.81049 0.000349823 0)
(-2.8154 0.00052352 0)
(-2.82045 0.000705227 0)
(-2.82564 0.000892338 0)
(-2.83099 0.00108078 0)
(-2.83651 0.00126546 0)
(-2.84222 0.00144084 0)
(-2.84811 0.00159805 0)
(-2.85423 0.00172624 0)
(-2.86058 0.00181455 0)
(-2.86718 0.00184672 0)
(-2.87405 0.00180452 0)
(-2.88123 0.00167148 0)
(-2.88871 0.00142552 0)
(-2.89655 0.00105218 1.23683e-41)
(-2.90477 0.000531322 0)
(-2.91339 -0.000152271 0)
(-2.92241 -0.00100312 0)
(-2.93188 -0.00201638 0)
(-2.94159 -0.00324945 -3.8197e-41)
(-2.9515 -0.00454218 0)
(-2.96139 -0.00583468 0)
(-2.9708 -0.00702139 0)
(-2.97899 -0.00798998 0)
(-2.98476 -0.00864905 0)
(-2.9862 -0.00886332 -5.20939e-41)
(-2.98006 -0.00803024 0)
(-2.96025 -0.00520556 0)
(-2.91469 0.000825409 9.70264e-42)
(-2.82461 0.0124601 0)
(-2.65849 0.0323025 0)
(-2.46333 0.0574268 0)
(-2.53867 0.000598652 0)
(-2.53907 0.000741569 0)
(-2.54303 0.000889084 0)
(-2.54679 0.000985118 0)
(-2.55059 0.00103734 0)
(-2.55489 0.00105946 0)
(-2.55901 0.00106517 0)
(-2.56344 0.00106533 0)
(-2.56764 0.0010604 0)
(-2.57205 0.00105336 0)
(-2.57622 0.00104586 0)
(-2.58056 0.00103998 0)
(-2.58467 0.00103739 0)
(-2.58891 0.00103508 0)
(-2.59294 0.00102673 0)
(-2.59708 0.00101599 0)
(-2.60103 0.00100422 0)
(-2.60507 0.000991848 0)
(-2.60893 0.000979577 0)
(-2.61288 0.000967614 0)
(-2.61666 0.000956666 0)
(-2.62051 0.000946812 1.11297e-41)
(-2.62421 0.000936591 0)
(-2.62797 0.000924623 0)
(-2.63159 0.000912087 0)
(-2.63527 0.000899362 0)
(-2.63882 0.000886525 0)
(-2.64242 0.000873269 0)
(-2.64591 0.000861307 0)
(-2.64945 0.000851267 0)
(-2.65288 0.000842156 0)
(-2.65635 0.00083297 0)
(-2.65974 0.000824405 0)
(-2.66316 0.000816028 0)
(-2.66651 0.00080848 0)
(-2.66989 0.000801026 0)
(-2.67321 0.000794675 0)
(-2.67656 0.000788661 0)
(-2.67986 0.000783531 0)
(-2.68318 0.000779028 0)
(-2.68649 0.000775552 0)
(-2.68979 0.000773063 0)
(-2.6931 0.000771734 0)
(-2.69642 0.000771941 0)
(-2.69974 0.000773781 0)
(-2.70307 0.000777708 0)
(-2.70642 0.000784068 0)
(-2.70978 0.000793115 0)
(-2.71316 0.000805662 0)
(-2.71657 0.000821877 0)
(-2.72001 0.000842084 0)
(-2.72347 0.000866313 0)
(-2.72696 0.000893308 0)
(-2.73049 0.000915496 0)
(-2.73406 0.000944587 0)
(-2.73769 0.000978965 0)
(-2.74136 0.00102449 0)
(-2.74509 0.00109102 0)
(-2.74887 0.00117365 0)
(-2.75271 0.00126879 0)
(-2.75661 0.00137617 0)
(-2.76057 0.00149626 0)
(-2.7646 0.00162963 0)
(-2.76871 0.00177702 0)
(-2.7729 0.00193888 0)
(-2.77717 0.0021156 0)
(-2.78154 0.00230747 0)
(-2.786 0.00251465 0)
(-2.79056 0.00273669 0)
(-2.79524 0.00297266 0)
(-2.80003 0.00322118 0)
(-2.80495 0.00348008 0)
(-2.81002 0.00374575 0)
(-2.81523 0.00401379 0)
(-2.8206 0.00427963 0)
(-2.82615 0.00453537 0)
(-2.83189 0.0047708 0)
(-2.83783 0.00497494 0)
(-2.844 0.00513302 0)
(-2.85042 0.00522834 0)
(-2.8571 0.00524566 0)
(-2.86408 0.00516666 0)
(-2.87137 0.00497267 5.84534e-41)
(-2.87901 0.00464505 0)
(-2.887 0.0041667 0)
(-2.89535 0.00351471 0)
(-2.90406 0.00268693 0)
(-2.91297 0.00160576 1.88756e-41)
(-2.92202 0.000364937 0)
(-2.93088 -0.00106077 0)
(-2.93909 -0.00265642 0)
(-2.94574 -0.00445787 0)
(-2.94998 -0.0066779 0)
(-2.94978 -0.00961864 -5.65333e-41)
(-2.94182 -0.0136857 0)
(-2.92008 -0.0197054 0)
(-2.87362 -0.0294732 -3.46456e-40)
(-2.7831 -0.0459621 0)
(-2.61824 -0.0722854 0)
(-2.42444 -0.103466 0)
(-2.4602 0.0014354 0)
(-2.45981 0.00211474 0)
(-2.46384 0.00260566 0)
(-2.46747 0.00291995 0)
(-2.47121 0.00310621 0)
(-2.47543 0.00320803 0)
(-2.47958 0.00325978 0)
(-2.48403 0.00328251 0)
(-2.48835 0.00328803 0)
(-2.49288 0.00328287 0)
(-2.49729 0.00327281 0)
(-2.50184 0.00326035 0)
(-2.5063 0.00324833 0)
(-2.51086 0.00323439 0)
(-2.51533 0.00321596 0)
(-2.51989 0.00319453 0)
(-2.52437 0.00317161 0)
(-2.52894 0.00314759 0)
(-2.53342 0.00312336 0)
(-2.53797 0.00309905 0)
(-2.54245 0.0030754 0)
(-2.54698 0.00305214 0)
(-2.55144 0.00302861 0)
(-2.55595 0.00300386 0)
(-2.56039 0.00297874 0)
(-2.56487 0.00295326 0)
(-2.56927 0.00292772 0)
(-2.57372 0.00290251 0)
(-2.57809 0.00287906 0)
(-2.58249 0.00285737 0)
(-2.58682 0.00283703 0)
(-2.59118 0.00281711 0)
(-2.59547 0.0027983 0)
(-2.59978 0.00278025 0)
(-2.60403 0.00276368 0)
(-2.60828 0.00274799 0)
(-2.61249 0.00273407 0)
(-2.6167 0.0027211 0)
(-2.62086 0.00271053 0)
(-2.62502 0.00270096 0)
(-2.62914 0.00269388 0)
(-2.63325 0.00268881 0)
(-2.63734 0.00268597 0)
(-2.64142 0.00268609 0)
(-2.64548 0.00268925 0)
(-2.64953 0.00269591 0)
(-2.65356 0.00270651 0)
(-2.6576 0.00272146 0)
(-2.66162 0.00274136 0)
(-2.66565 0.00276655 0)
(-2.66967 0.00279719 0)
(-2.6737 0.00283311 0)
(-2.67774 0.00287253 0)
(-2.68179 0.0029138 0)
(-2.68586 0.00296268 0)
(-2.68996 0.00302014 0)
(-2.69408 0.00309157 0)
(-2.69824 0.00318241 0)
(-2.70242 0.00329033 0)
(-2.70665 0.0034129 0)
(-2.7109 0.00355025 0)
(-2.7152 0.00370307 0)
(-2.71954 0.00387188 0)
(-2.72394 0.00405746 0)
(-2.72839 0.0042604 0)
(-2.7329 0.00448124 0)
(-2.73748 0.00472061 0)
(-2.74213 0.00497905 0)
(-2.74686 0.00525642 0)
(-2.75168 0.00555223 0)
(-2.75659 0.0058656 0)
(-2.76162 0.00619484 0)
(-2.76675 0.00653714 0)
(-2.77202 0.00688884 0)
(-2.77743 0.00724539 0)
(-2.783 0.0075999 0)
(-2.78874 0.00794349 0)
(-2.79467 0.00826565 0)
(-2.80081 0.00855315 0)
(-2.80719 0.00879137 0)
(-2.81382 0.00896513 0)
(-2.82075 0.00905705 0)
(-2.82799 0.00904641 0)
(-2.83557 0.00891532 0)
(-2.84351 0.00864348 0)
(-2.85183 0.00819791 0)
(-2.8605 0.00754441 0)
(-2.86947 0.0066328 0)
(-2.8786 0.0054381 0)