/*--------------------------------*- C++ -*----------------------------------*\
| =========                 |                                                 |
| \\      /  F ield         | OpenFOAM: The Open Source CFD Toolbox           |
|  \\    /   O peration     | Version:  2.1.0                                 |
|   \\  /    A nd           | Web:      www.OpenFOAM.org                      |
|    \\/     M anipulation  |                                                 |
\*---------------------------------------------------------------------------*/
FoamFile
{
    version     2.0;
    format      ascii;
    class       volScalarField;
    location    "0.09";
    object      C1;
}
// * * * * * * * * * * * * * * * * * * * * * * * * * * * * * * * * * * * * * //

dimensions      [0 0 0 0 0 0 0];

internalField   nonuniform List<scalar> 
6400
(
2.90242e-43
5.98971e-43
1.23817e-42
2.54197e-42
5.18335e-42
1.0499e-41
2.11253e-41
4.22275e-41
8.3855e-41
1.65428e-40
3.24221e-40
6.31287e-40
1.22114e-39
2.34673e-39
4.48035e-39
8.49787e-39
1.60122e-38
2.99726e-38
5.57352e-38
1.02959e-37
1.88945e-37
3.44477e-37
6.23971e-37
1.123e-36
2.00837e-36
3.56939e-36
6.30477e-36
1.10689e-35
1.93167e-35
3.35101e-35
5.77888e-35
9.90697e-35
1.68837e-34
2.86038e-34
4.81749e-34
8.06628e-34
1.34279e-33
2.22262e-33
3.6584e-33
5.9888e-33
9.75145e-33
1.57956e-32
2.5456e-32
4.08203e-32
6.51373e-32
1.03438e-31
1.63475e-31
2.57132e-31
4.02536e-31
6.27184e-31
9.7256e-31
1.50088e-30
2.30492e-30
3.52215e-30
5.35511e-30
8.10022e-30
1.21883e-29
1.82408e-29
2.71484e-29
4.01785e-29
5.91201e-29
8.64791e-29
1.25735e-28
1.81672e-28
2.60818e-28
3.71994e-28
5.26992e-28
7.41425e-28
1.03576e-27
1.43643e-27
1.9771e-27
2.70016e-27
3.65809e-27
4.91448e-27
6.54481e-27
8.63617e-27
1.12855e-26
1.45956e-26
1.86675e-26
2.35872e-26
2.94069e-26
3.61169e-26
4.36091e-26
5.16293e-26
5.97268e-26
6.72053e-26
7.31068e-26
7.62747e-26
7.55247e-26
6.99798e-26
5.9544e-26
4.53684e-26
3.01118e-26
1.72231e-26
8.90445e-27
5.23735e-27
2.74305e-27
1.15467e-27
3.55356e-28
7.05971e-29
1.81957e-42
3.7731e-42
7.81486e-42
1.60687e-41
3.2813e-41
6.65623e-41
1.34148e-40
2.68619e-40
5.34437e-40
1.05649e-39
2.07512e-39
4.0498e-39
7.85307e-39
1.51308e-38
2.89666e-38
5.50987e-38
1.04132e-37
1.95529e-37
3.64769e-37
6.76078e-37
1.24494e-36
2.27764e-36
4.1402e-36
7.47787e-36
1.3421e-35
2.39372e-35
4.24301e-35
7.47517e-35
1.30902e-34
2.27864e-34
3.94299e-34
6.7828e-34
1.15992e-33
1.97192e-33
3.33271e-33
5.59968e-33
9.35419e-33
1.55366e-32
2.56596e-32
4.21437e-32
6.88418e-32
1.11856e-31
1.808e-31
2.90745e-31
4.65199e-31
7.40638e-31
1.17337e-30
1.84989e-30
2.90233e-30
4.53144e-30
7.04059e-30
1.08854e-29
1.67461e-29
2.56323e-29
3.90328e-29
5.91294e-29
8.90961e-29
1.33517e-28
1.98967e-28
2.94807e-28
4.34259e-28
6.3585e-28
9.25317e-28
1.33808e-27
1.92243e-27
2.74369e-27
3.8891e-27
5.47422e-27
7.65048e-27
1.06137e-26
1.4613e-26
1.99616e-26
2.70468e-26
3.63383e-26
4.83927e-26
6.38516e-26
8.34271e-26
1.0787e-25
1.37909e-25
1.74153e-25
2.16939e-25
2.66123e-25
3.20796e-25
3.78936e-25
4.37049e-25
4.89849e-25
5.30237e-25
5.4988e-25
5.40652e-25
4.9723e-25
4.2045e-25
3.20158e-25
2.15102e-25
1.26926e-25
6.87328e-26
4.13831e-26
2.18787e-26
9.55435e-27
3.27273e-27
8.59043e-28
8.44851e-42
1.77137e-41
3.70516e-41
7.69311e-41
1.58646e-40
3.25021e-40
6.61622e-40
1.33829e-39
2.68988e-39
5.37225e-39
1.06612e-38
2.10221e-38
4.11863e-38
8.01736e-38
1.5506e-37
2.97951e-37
5.68785e-37
1.07868e-36
2.03222e-36
3.80332e-36
7.07078e-36
1.30582e-35
2.3956e-35
4.36591e-35
7.9046e-35
1.42185e-34
2.5411e-34
4.51249e-34
7.96288e-34
1.39642e-33
2.43375e-33
4.21575e-33
7.25815e-33
1.24206e-32
2.1127e-32
3.57211e-32
6.00383e-32
1.00316e-31
1.66644e-31
2.75244e-31
4.52065e-31
7.38382e-31
1.1995e-30
1.93821e-30
3.11542e-30
4.98168e-30
7.92508e-30
1.25435e-29
1.97527e-29
3.09484e-29
4.82443e-29
7.48234e-29
1.15448e-28
1.77201e-28
2.70548e-28
4.10857e-28
6.20524e-28
9.31961e-28
1.39173e-27
2.06621e-27
3.04929e-27
4.4727e-27
6.51966e-27
9.44276e-27
1.35869e-26
1.94186e-26
2.75625e-26
3.88463e-26
5.43556e-26
7.54968e-26
1.04064e-25
1.42314e-25
1.93042e-25
2.59648e-25
3.46176e-25
4.57302e-25
5.98241e-25
7.74518e-25
9.91552e-25
1.25394e-24
1.56437e-24
1.92208e-24
2.32083e-24
2.74633e-24
3.1738e-24
3.56579e-24
3.87212e-24
4.03383e-24
3.99329e-24
3.71204e-24
3.19323e-24
2.50034e-24
1.7565e-24
1.109e-24
6.65481e-25
4.18364e-25
2.32705e-25
1.10437e-25
4.35399e-26
1.47254e-26
3.15912e-41
6.71482e-41
1.42368e-40
2.99626e-40
6.2627e-40
1.30038e-39
2.68259e-39
5.49834e-39
1.1197e-38
2.26544e-38
4.55379e-38
9.09382e-38
1.80409e-37
3.55545e-37
6.96052e-37
1.35357e-36
2.6145e-36
5.01592e-36
9.55764e-36
1.80874e-35
3.39956e-35
6.34579e-35
1.17644e-34
2.1661e-34
3.96119e-34
7.19496e-34
1.29811e-33
2.32649e-33
4.1422e-33
7.32714e-33
1.28778e-32
2.24894e-32
3.90274e-32
6.73031e-32
1.15345e-31
1.96461e-31
3.32582e-31
5.59618e-31
9.36019e-31
1.55637e-30
2.57287e-30
4.22895e-30
6.91191e-30
1.12344e-29
1.81601e-29
2.91967e-29
4.66893e-29
7.42656e-29
1.17505e-28
1.8494e-28
2.89541e-28
4.50907e-28
6.98461e-28
1.0761e-27
1.64888e-27
2.51264e-27
3.80745e-27
5.73671e-27
8.59348e-27
1.27968e-26
1.89414e-26
2.78637e-26
4.07315e-26
5.91596e-26
8.53618e-26
1.22343e-25
1.74143e-25
2.46135e-25
3.45399e-25
4.81152e-25
6.65235e-25
9.12646e-25
1.24211e-24
1.67661e-24
2.24379e-24
2.97608e-24
3.91035e-24
5.08672e-24
6.54617e-24
8.32628e-24
1.04544e-23
1.29375e-23
1.57489e-23
1.88105e-23
2.19737e-23
2.50034e-23
2.7571e-23
2.92707e-23
2.9675e-23
2.8442e-23
2.54644e-23
2.10202e-23
1.5829e-23
1.0918e-23
7.24984e-24
4.84132e-24
2.90353e-24
1.52408e-24
6.9184e-25
2.86768e-25
1.01448e-40
2.18446e-40
4.69403e-40
1.0014e-39
2.12174e-39
4.46558e-39
9.33671e-39
1.9393e-38
4.0015e-38
8.20183e-38
1.66991e-37
3.37717e-37
6.78377e-37
1.35343e-36
2.6818e-36
5.27744e-36
1.03135e-35
2.00148e-35
3.85697e-35
7.38043e-35
1.40233e-34
2.64578e-34
4.95673e-34
9.22107e-34
1.70342e-33
3.12485e-33
5.69283e-33
1.03001e-32
1.85097e-32
3.30394e-32
5.85829e-32
1.03192e-31
1.80585e-31
3.13984e-31
5.42439e-31
9.31188e-31
1.58853e-30
2.69312e-30
4.53786e-30
7.60002e-30
1.26527e-29
2.09406e-29
3.44564e-29
5.63712e-29
9.17024e-29
1.48343e-28
2.38637e-28
3.81777e-28
6.0743e-28
9.61186e-28
1.51268e-27
2.36765e-27
3.68557e-27
5.7055e-27
8.78348e-27
1.34463e-26
2.04677e-26
3.09771e-26
4.66103e-26
6.9719e-26
1.03659e-25
1.53178e-25
2.24946e-25
3.28246e-25
4.75896e-25
6.85422e-25
9.80567e-25
1.39319e-24
1.96561e-24
2.75348e-24
3.82914e-24
5.28545e-24
7.24001e-24
9.83951e-24
1.32638e-23
1.77292e-23
2.34891e-23
3.08308e-23
4.00659e-23
5.15092e-23
6.54436e-23
8.20624e-23
1.01385e-22
1.23142e-22
1.46634e-22
1.7058e-22
1.93012e-22
2.11252e-22
2.22129e-22
2.22528e-22
2.10321e-22
1.85578e-22
1.5156e-22
1.14796e-22
8.35772e-23
6.00401e-23
3.92722e-23
2.29325e-23
1.18898e-23
5.77275e-24
2.83638e-40
6.17852e-40
1.344e-39
2.90332e-39
6.2294e-39
1.32765e-38
2.81072e-38
5.91065e-38
1.23458e-37
2.56121e-37
5.27714e-37
1.07984e-36
2.19437e-36
4.42828e-36
8.87399e-36
1.7658e-35
3.48882e-35
6.84404e-35
1.33299e-34
2.57758e-34
4.94839e-34
9.43152e-34
1.78472e-33
3.35303e-33
6.2545e-33
1.15837e-32
2.13022e-32
3.88997e-32
7.05406e-32
1.27038e-31
2.27226e-31
4.03687e-31
7.12399e-31
1.24889e-30
2.17508e-30
3.76368e-30
6.4709e-30
1.10552e-29
1.87692e-29
3.16698e-29
5.31124e-29
8.85385e-29
1.46719e-28
2.41709e-28
3.95892e-28
6.44713e-28
1.04396e-27
1.68092e-27
2.69135e-27
4.28516e-27
6.78492e-27
1.06834e-26
1.67288e-26
2.60499e-26
4.03386e-26
6.21151e-26
9.51083e-26
1.44799e-25
2.19186e-25
3.29866e-25
4.93521e-25
7.33981e-25
1.08502e-24
1.59415e-24
2.32766e-24
3.37725e-24
4.86871e-24
6.9731e-24
9.92093e-24
1.40198e-23
1.96762e-23
2.74214e-23
3.79417e-23
5.21128e-23
7.10354e-23
9.60709e-23
1.28874e-22
1.71407e-22
2.2593e-22
2.94938e-22
3.81028e-22
4.86623e-22
6.13538e-22
7.62303e-22
9.312e-22
1.11508e-21
1.3042e-21
1.4831e-21
1.63059e-21
1.72162e-21
1.7318e-21
1.64535e-21
1.46513e-21
1.22049e-21
9.70261e-22
7.55186e-22
5.42285e-22
3.5302e-22
2.07306e-22
1.14188e-22
6.87802e-40
1.51363e-39
3.32862e-39
7.27144e-39
1.57789e-38
3.40106e-38
7.28142e-38
1.5483e-37
3.26964e-37
6.85684e-37
1.42793e-36
2.95276e-36
6.06282e-36
1.23604e-35
2.50197e-35
5.0282e-35
1.00324e-34
1.9872e-34
3.90759e-34
7.62777e-34
1.4781e-33
2.84335e-33
5.42977e-33
1.02935e-32
1.93727e-32
3.61969e-32
6.71469e-32
1.23674e-31
2.26179e-31
4.10754e-31
7.40786e-31
1.32684e-30
2.36043e-30
4.17101e-30
7.32157e-30
1.27677e-29
2.2121e-29
3.80814e-29
6.51437e-29
1.10744e-28
1.87109e-28
3.14218e-28
5.24519e-28
8.70401e-28
1.43594e-27
2.35527e-27
3.84111e-27
6.22888e-27
1.00443e-26
1.61065e-26
2.56844e-26
4.07319e-26
6.424e-26
1.0076e-25
1.57175e-25
2.43832e-25
3.76185e-25
5.77179e-25
8.80655e-25
1.3362e-24
2.01601e-24
3.02446e-24
4.5114e-24
6.69054e-24
9.86432e-24
1.44577e-23
2.1063e-23
3.04996e-23
4.38921e-23
6.27705e-23
8.91974e-23
1.2593e-22
1.76616e-22
2.46033e-22
3.40358e-22
4.67461e-22
6.3724e-22
8.61931e-22
1.15639e-21
1.53821e-21
2.02755e-21
2.64644e-21
3.4172e-21
4.3596e-21
5.48551e-21
6.79074e-21
8.24731e-21
9.79094e-21
1.13108e-20
1.26478e-20
1.36033e-20
1.39727e-20
1.36072e-20
1.2496e-20
1.08721e-20
9.20854e-21
7.29487e-21
5.30532e-21
3.51e-21
2.15297e-21
1.43244e-39
3.18081e-39
7.06172e-39
1.55783e-38
3.41417e-38
7.43258e-38
1.60707e-37
3.45086e-37
7.35821e-37
1.55786e-36
3.27467e-36
6.83383e-36
1.4158e-35
2.91183e-35
5.94497e-35
1.20488e-34
2.42405e-34
4.84103e-34
9.5968e-34
1.88845e-33
3.68875e-33
7.1524e-33
1.37668e-32
2.63045e-32
4.98953e-32
9.39584e-32
1.75662e-31
3.26068e-31
6.0097e-31
1.09987e-30
1.99893e-30
3.60795e-30
6.46783e-30
1.15166e-29
2.03703e-29
3.57939e-29
6.24881e-29
1.08393e-28
1.86833e-28
3.20035e-28
5.4484e-28
9.2195e-28
1.55078e-27
2.59316e-27
4.31106e-27
7.12598e-27
1.17123e-26
1.91428e-26
3.11144e-26
5.02961e-26
8.08619e-26
1.29303e-25
2.05656e-25
3.25359e-25
5.12011e-25
8.01494e-25
1.24805e-24
1.93319e-24
2.97873e-24
4.56559e-24
6.96093e-24
1.05568e-23
1.59253e-23
2.38953e-23
3.5661e-23
5.2931e-23
7.81338e-23
1.14696e-22
1.6742e-22
2.42983e-22
3.50605e-22
5.02916e-22
7.17093e-22
1.01629e-21
1.43148e-21
2.00363e-21
2.78518e-21
3.84373e-21
5.26486e-21
7.15498e-21
9.64403e-21
1.28872e-20
1.70656e-20
2.23842e-20
2.9062e-20
3.72616e-20
4.70868e-20
5.84908e-20
7.11614e-20
8.44587e-20
9.73214e-20
1.0827e-19
1.15545e-19
1.17482e-19
1.13208e-19
1.04481e-19
9.17441e-20
7.48522e-20
5.57831e-20
3.78568e-20
2.52648e-39
5.65372e-39
1.26531e-38
2.81456e-38
6.22064e-38
1.36574e-37
2.97799e-37
6.4481e-37
1.38624e-36
2.95865e-36
6.26845e-36
1.3183e-35
2.75191e-35
5.70185e-35
1.17261e-34
2.39358e-34
4.84957e-34
9.75267e-34
1.94676e-33
3.85727e-33
7.58637e-33
1.48111e-32
2.87047e-32
5.52267e-32
1.05485e-31
2.00031e-31
3.7661e-31
7.04037e-31
1.30688e-30
2.40901e-30
4.40998e-30
8.01789e-30
1.44792e-29
2.59729e-29
4.62837e-29
8.19414e-29
1.4414e-28
2.51948e-28
4.37644e-28
7.5554e-28
1.29646e-27
2.21141e-27
3.74997e-27
6.32229e-27
1.05986e-26
1.76679e-26
2.92901e-26
4.8294e-26
7.92014e-26
1.29202e-25
2.09669e-25
3.38492e-25
5.43671e-25
8.68797e-25
1.38138e-24
2.18543e-24
3.44032e-24
5.38905e-24
8.4001e-24
1.30293e-23
2.01106e-23
3.08885e-23
4.72105e-23
7.18042e-23
1.08674e-22
1.6367e-22
2.45288e-22
3.658e-22
5.42819e-22
8.01325e-22
1.1767e-21
1.71865e-21
2.49645e-21
3.60591e-21
5.17846e-21
7.39269e-21
1.04906e-20
1.47948e-20
2.0731e-20
2.88545e-20
3.98796e-20
5.47095e-20
7.44654e-20
1.00507e-19
1.34442e-19
1.78161e-19
2.33756e-19
3.03454e-19
3.88338e-19
4.8856e-19
6.02181e-19
7.2429e-19
8.46042e-19
9.53959e-19
1.03004e-18
1.05621e-18
1.03288e-18
9.53295e-19
8.06075e-19
6.08811e-19
3.70834e-39
8.34722e-39
1.87948e-38
4.20689e-38
9.35708e-38
2.0675e-37
4.53711e-37
9.88688e-37
2.13906e-36
4.59432e-36
9.7953e-36
2.07294e-35
4.35424e-35
9.07802e-35
1.87855e-34
3.85845e-34
7.86624e-34
1.59182e-33
3.19747e-33
6.37548e-33
1.26191e-32
2.47956e-32
4.83687e-32
9.36745e-32
1.80121e-31
3.43888e-31
6.5193e-31
1.22728e-30
2.2944e-30
4.26004e-30
7.85606e-30
1.43905e-29
2.61858e-29
4.73378e-29
8.5024e-29
1.51742e-28
2.69115e-28
4.74331e-28
8.30954e-28
1.44699e-27
2.50492e-27
4.31122e-27
7.37782e-27
1.25551e-26
2.12478e-26
3.57646e-26
5.98791e-26
9.97279e-26
1.65239e-25
2.72394e-25
4.46788e-25
7.29215e-25
1.18436e-24
1.91432e-24
3.07941e-24
4.93018e-24
7.85628e-24
1.24608e-23
1.96725e-23
3.09149e-23
4.83591e-23
7.52999e-23
1.16712e-22
1.80071e-22
2.76546e-22
4.2275e-22
6.43245e-22
9.74161e-22
1.46836e-21
2.20293e-21
3.28936e-21
4.88819e-21
7.22909e-21
1.06388e-20
1.55789e-20
2.26977e-20
3.28991e-20
4.7434e-20
6.80195e-20
9.6993e-20
1.37506e-19
1.93765e-19
2.71316e-19
3.7738e-19
5.21214e-19
7.1448e-19
9.7157e-19
1.3098e-18
1.75049e-18
2.31813e-18
3.03382e-18
3.913e-18
4.9601e-18
6.15882e-18
7.45644e-18
8.74268e-18
9.82127e-18
1.04194e-17
1.01923e-17
8.7594e-18
4.43425e-39
1.00062e-38
2.2591e-38
5.07123e-38
1.13145e-37
2.50828e-37
5.52378e-37
1.2082e-36
2.62432e-36
5.66005e-36
1.21202e-35
2.57669e-35
5.43823e-35
1.13943e-34
2.37003e-34
4.8939e-34
1.00323e-33
2.04173e-33
4.12532e-33
8.27539e-33
1.64819e-32
3.25935e-32
6.39999e-32
1.24788e-31
2.4162e-31
4.64603e-31
8.87249e-31
1.68286e-30
3.17045e-30
5.93324e-30
1.10305e-29
2.03733e-29
3.73875e-29
6.81754e-29
1.23539e-28
2.2248e-28
3.98226e-28
7.08536e-28
1.25322e-27
2.20379e-27
3.85327e-27
6.6996e-27
1.15843e-26
1.99221e-26
3.40789e-26
5.79908e-26
9.81739e-26
1.65361e-25
2.77144e-25
4.62217e-25
7.67165e-25
1.26725e-24
2.08351e-24
3.40967e-24
5.55441e-24
9.00726e-24
1.4541e-23
2.33703e-23
3.73949e-23
5.95737e-23
9.44931e-23
1.49231e-22
2.34659e-22
3.67401e-22
5.7276e-22
8.89068e-22
1.37413e-21
2.1147e-21
3.24037e-21
4.94383e-21
7.51011e-21
1.13589e-20
1.71048e-20
2.56436e-20
3.82738e-20
5.68679e-20
8.41109e-20
1.2383e-19
1.8145e-19
2.64605e-19
3.83977e-19
5.54393e-19
7.96285e-19
1.13757e-18
1.61604e-18
2.2824e-18
3.20389e-18
4.46872e-18
6.19122e-18
8.51769e-18
1.16396e-17
1.5799e-17
2.12364e-17
2.82198e-17
3.69908e-17
4.76572e-17
5.99453e-17
7.26258e-17
8.22712e-17
8.14468e-17
4.26236e-39
9.60454e-39
2.16566e-38
4.85638e-38
1.0827e-37
2.39924e-37
5.28356e-37
1.1561e-36
2.51318e-36
5.42699e-36
1.16403e-35
2.47972e-35
5.24636e-35
1.10234e-34
2.30022e-34
4.7667e-34
9.80987e-34
2.00498e-33
4.06974e-33
8.20425e-33
1.64262e-32
3.26648e-32
6.45176e-32
1.26577e-31
2.46677e-31
4.77558e-31
9.18477e-31
1.75503e-30
3.33196e-30
6.28561e-30
1.17831e-29
2.19516e-29
4.06447e-29
7.4801e-29
1.3684e-28
2.48862e-28
4.49968e-28
8.08944e-28
1.44613e-27
2.57094e-27
4.54574e-27
7.99444e-27
1.39856e-26
2.434e-26
4.21448e-26
7.26089e-26
1.24478e-25
2.12367e-25
3.60584e-25
6.09372e-25
1.02505e-24
1.71643e-24
2.86119e-24
4.74828e-24
7.84543e-24
1.29065e-23
2.11413e-23
3.4483e-23
5.6007e-23
9.05854e-23
1.45903e-22
2.34031e-22
3.73846e-22
5.94743e-22
9.42302e-22
1.48689e-21
2.33668e-21
3.65721e-21
5.70076e-21
8.8501e-21
1.36834e-20
2.10698e-20
3.23108e-20
4.93452e-20
7.50483e-20
1.13664e-19
1.71427e-19
2.57446e-19
3.84966e-19
5.73138e-19
8.49496e-19
1.2534e-18
1.84075e-18
2.69042e-18
3.91294e-18
5.66201e-18
8.14967e-18
1.16661e-17
1.66048e-17
2.3495e-17
3.3043e-17
4.61872e-17
6.4194e-17
8.84631e-17
1.20653e-16
1.62359e-16
2.14263e-16
2.73826e-16
3.29526e-16
3.50092e-16
3.32293e-39
7.45585e-39
1.67411e-38
3.73868e-38
8.30248e-38
1.8331e-37
4.02345e-37
8.7781e-37
1.90349e-36
4.10211e-36
8.78494e-36
1.86948e-35
3.95301e-35
8.30513e-35
1.73365e-34
3.59555e-34
7.40883e-34
1.51674e-33
3.08498e-33
6.23411e-33
1.25166e-32
2.49686e-32
4.94899e-32
9.74699e-32
1.90756e-31
3.70989e-31
7.17051e-31
1.37745e-30
2.63007e-30
4.99184e-30
9.41874e-30
1.76685e-29
3.29548e-29
6.11209e-29
1.12732e-28
2.06793e-28
3.77302e-28
6.84772e-28
1.23636e-27
2.22087e-27
3.96935e-27
7.05938e-27
1.24941e-26
2.20071e-26
3.85814e-26
6.7326e-26
1.16952e-25
2.02245e-25
3.48198e-25
5.96866e-25
1.01872e-24
1.73133e-24
2.93006e-24
4.93817e-24
8.28829e-24
1.38545e-23
2.30655e-23
3.82464e-23
6.31668e-23
1.03913e-22
1.70271e-22
2.77914e-22
4.51844e-22
7.31778e-22
1.18056e-21
1.89721e-21
3.03716e-21
4.84332e-21
7.69383e-21
1.21749e-20
1.91916e-20
3.01353e-20
4.71359e-20
7.34403e-20
1.13976e-19
1.7619e-19
2.71282e-19
4.16022e-19
6.35398e-19
9.66459e-19
1.46386e-18
2.20778e-18
3.31518e-18
4.95569e-18
7.3737e-18
1.09191e-17
1.60889e-17
2.35845e-17
3.4387e-17
4.98585e-17
7.18737e-17
1.02996e-16
1.4673e-16
2.07667e-16
2.91356e-16
4.04168e-16
5.51491e-16
7.32221e-16
9.23359e-16
1.04457e-15
2.12631e-39
4.73893e-39
1.05677e-38
2.34379e-38
5.16969e-38
1.13393e-37
2.4732e-37
5.36356e-37
1.15649e-36
2.47915e-36
5.2834e-36
1.11932e-35
2.35728e-35
4.93476e-35
1.02684e-34
2.12377e-34
4.36585e-34
8.9202e-34
1.81144e-33
3.65606e-33
7.3342e-33
1.46235e-32
2.89819e-32
5.70945e-32
1.1181e-31
2.17674e-31
4.21316e-31
8.10809e-31
1.55159e-30
2.95273e-30
5.58855e-30
1.05208e-29
1.9702e-29
3.67057e-29
6.80389e-29
1.25495e-28
2.30348e-28
4.20796e-28
7.65123e-28
1.38486e-27
2.49535e-27
4.47663e-27
7.99657e-27
1.42241e-26
2.51972e-26
4.44546e-26
7.81181e-26
1.36737e-25
2.38424e-25
4.14156e-25
7.16727e-25
1.23577e-24
2.12294e-24
3.63386e-24
6.19787e-24
1.05335e-23
1.78389e-23
3.0105e-23
5.06275e-23
8.48431e-23
1.41688e-22
2.35794e-22
3.91038e-22
6.46232e-22
1.06424e-21
1.74648e-21
2.85603e-21
4.65401e-21
7.55703e-21
1.22272e-20
1.97128e-20
3.16669e-20
5.06868e-20
8.08361e-20
1.28448e-19
2.03353e-19
3.20743e-19
5.04001e-19
7.88953e-19
1.23024e-18
1.9108e-18
2.9559e-18
4.55374e-18
6.98546e-18
1.06686e-17
1.62194e-17
2.45411e-17
3.69479e-17
5.53373e-17
8.24261e-17
1.22071e-16
1.79696e-16
2.62869e-16
3.82216e-16
5.51524e-16
7.88168e-16
1.11085e-15
1.53045e-15
2.02058e-15
2.43578e-15
1.13205e-39
2.50033e-39
5.5235e-39
1.21347e-38
2.65138e-38
5.76186e-38
1.24536e-37
2.6771e-37
5.72334e-37
1.21684e-36
2.57278e-36
5.40928e-36
1.13091e-35
2.35101e-35
4.85968e-35
9.98788e-35
2.041e-34
4.14676e-34
8.37666e-34
1.68241e-33
3.35972e-33
6.67111e-33
1.31715e-32
2.58605e-32
5.04925e-32
9.80477e-32
1.89366e-31
3.63796e-31
6.95262e-31
1.32196e-30
2.50099e-30
4.70842e-30
8.82179e-30
1.64514e-29
3.05392e-29
5.64377e-29
1.03845e-28
1.90261e-28
3.47146e-28
6.30838e-28
1.14186e-27
2.05895e-27
3.69881e-27
6.6207e-27
1.18091e-26
2.09912e-26
3.71885e-26
6.56699e-26
1.15596e-25
2.0285e-25
3.54883e-25
6.1902e-25
1.0766e-24
1.86705e-24
3.22866e-24
5.56757e-24
9.57407e-24
1.6418e-23
2.80763e-23
4.78803e-23
8.14278e-23
1.38096e-22
2.3355e-22
3.93876e-22
6.6239e-22
1.11079e-21
1.8574e-21
3.09687e-21
5.14841e-21
8.53381e-21
1.41033e-20
2.32378e-20
3.81729e-20
6.25154e-20
1.02065e-19
1.66117e-19
2.69511e-19
4.35862e-19
7.026e-19
1.12883e-18
1.8075e-18
2.88416e-18
4.58572e-18
7.26419e-18
1.14628e-17
1.80151e-17
2.81926e-17
4.39216e-17
6.80992e-17
1.05047e-16
1.61153e-16
2.45769e-16
3.72448e-16
5.60762e-16
8.38757e-16
1.24434e-15
1.8249e-15
2.62687e-15
3.65168e-15
4.71048e-15
5.07744e-40
1.10904e-39
2.42179e-39
5.2584e-39
1.13556e-38
2.43929e-38
5.21239e-38
1.10799e-37
2.34291e-37
4.92819e-37
1.03115e-36
2.14607e-36
4.44269e-36
9.14781e-36
1.87348e-35
3.81621e-35
7.73144e-35
1.55786e-34
3.12206e-34
6.22302e-34
1.23374e-33
2.43288e-33
4.77217e-33
9.31181e-33
1.80759e-32
3.49099e-32
6.70836e-32
1.28276e-31
2.44107e-31
4.62349e-31
8.71693e-31
1.6361e-30
3.05741e-30
5.68915e-30
1.05423e-29
1.94566e-29
3.57677e-29
6.55019e-29
1.19511e-28
2.17274e-28
3.93645e-28
7.1081e-28
1.27941e-27
2.29574e-27
4.10724e-27
7.32722e-27
1.30358e-26
2.3131e-26
4.09401e-26
7.22841e-26
1.27325e-25
2.23766e-25
3.92386e-25
6.8659e-25
1.19885e-24
2.08899e-24
3.63268e-24
6.30449e-24
1.09198e-23
1.88767e-23
3.2568e-23
5.608e-23
9.63777e-23
1.65308e-22
2.82982e-22
4.83464e-22
8.24339e-22
1.40274e-21
2.38215e-21
4.0372e-21
6.8282e-21
1.15251e-20
1.94127e-20
3.2631e-20
5.47353e-20
9.16211e-20
1.53042e-19
2.55102e-19
4.24326e-19
7.04319e-19
1.16659e-18
1.92815e-18
3.17997e-18
5.23289e-18
8.59134e-18
1.40712e-17
2.29868e-17
3.74465e-17
6.08144e-17
9.84251e-17
1.58677e-16
2.54675e-16
4.0665e-16
6.45413e-16
1.01837e-15
1.59634e-15
2.47877e-15
3.78906e-15
5.62162e-15
7.82537e-15
1.93211e-40
4.16651e-40
8.9792e-40
1.92387e-39
4.09978e-39
8.69131e-39
1.83314e-38
3.8469e-38
8.03231e-38
1.66872e-37
3.44934e-37
7.09402e-37
1.45161e-36
2.9553e-36
5.98616e-36
1.20638e-35
2.41883e-35
4.82518e-35
9.57653e-35
1.89103e-34
3.7153e-34
7.26292e-34
1.41277e-33
2.73463e-33
5.26773e-33
1.00991e-32
1.92716e-32
3.66078e-32
6.92314e-32
1.30363e-31
2.44446e-31
4.56493e-31
8.4909e-31
1.57322e-30
2.9039e-30
5.34047e-30
9.78651e-30
1.78721e-29
3.25296e-29
5.90188e-29
1.06751e-28
1.92522e-28
3.46241e-28
6.21052e-28
1.11119e-27
1.98341e-27
3.53231e-27
6.27738e-27
1.11332e-26
1.97072e-26
3.48207e-26
6.14183e-26
1.08152e-25
1.90144e-25
3.33781e-25
5.85056e-25
1.02404e-24
1.78991e-24
3.12439e-24
5.44663e-24
9.4827e-24
1.64887e-23
2.86355e-23
4.96696e-23
8.60511e-23
1.48905e-22
2.57367e-22
4.44321e-22
7.66202e-22
1.31978e-21
2.27083e-21
3.903e-21
6.70114e-21
1.14935e-20
1.96937e-20
3.3713e-20
5.76627e-20
9.85511e-20
1.68323e-19
2.87345e-19
4.9036e-19
8.36686e-19
1.42772e-18
2.43706e-18
4.16241e-18
7.11546e-18
1.21776e-17
2.08702e-17
3.58244e-17
6.15986e-17
1.06096e-16
1.83007e-16
3.1593e-16
5.45076e-16
9.37472e-16
1.60708e-15
2.73583e-15
4.59089e-15
7.47763e-15
1.14294e-14
6.15359e-41
1.30954e-40
2.7851e-40
5.88871e-40
1.23837e-39
2.59086e-39
5.39337e-39
1.11721e-38
2.30292e-38
4.72393e-38
9.643e-38
1.95888e-37
3.96e-37
7.96673e-37
1.59503e-36
3.17805e-36
6.30175e-36
1.24358e-35
2.44233e-35
4.77375e-35
9.28658e-35
1.79809e-34
3.46536e-34
6.64813e-34
1.2697e-33
2.41432e-33
4.57116e-33
8.61878e-33
1.61847e-32
3.02731e-32
5.64089e-32
1.04719e-31
1.93698e-31
3.57016e-31
6.55769e-31
1.20048e-30
2.1905e-30
3.98442e-30
7.22564e-30
1.30658e-29
2.3562e-29
4.23808e-29
7.60455e-29
1.36142e-28
2.43216e-28
4.3364e-28
7.7173e-28
1.37105e-27
2.43188e-27
4.30706e-27
7.6175e-27
1.34547e-26
2.37356e-26
4.18233e-26
7.36131e-26
1.2943e-25
2.27345e-25
3.98954e-25
6.99459e-25
1.22523e-24
2.14437e-24
3.74995e-24
6.55245e-24
1.14406e-23
1.99604e-23
3.48e-23
6.06291e-23
1.05557e-22
1.83654e-22
3.19327e-22
5.54896e-22
9.63692e-22
1.67275e-21
2.90211e-21
5.03289e-21
8.72525e-21
1.51234e-20
2.62119e-20
4.54357e-20
7.87858e-20
1.36703e-19
2.37432e-19
4.12979e-19
7.19753e-19
1.25779e-18
2.20592e-18
3.88704e-18
6.89187e-18
1.23199e-17
2.22632e-17
4.0811e-17
7.61917e-17
1.45378e-16
2.83787e-16
5.65059e-16
1.13256e-15
2.27313e-15
4.49777e-15
8.55187e-15
1.49216e-14
1.52428e-41
3.21273e-41
6.77338e-41
1.41961e-40
2.95881e-40
6.13418e-40
1.26517e-39
2.59617e-39
5.3007e-39
1.07688e-38
2.17698e-38
4.37937e-38
8.7672e-38
1.74671e-37
3.46343e-37
6.83492e-37
1.3425e-36
2.62457e-36
5.10718e-36
9.89239e-36
1.9074e-35
3.66127e-35
6.99697e-35
1.33143e-34
2.52294e-34
4.76127e-34
8.94993e-34
1.67591e-33
3.12658e-33
5.81199e-33
1.07661e-32
1.9875e-32
3.65679e-32
6.7061e-32
1.22588e-31
2.23396e-31
4.05874e-31
7.35278e-31
1.32836e-30
2.3936e-30
4.30261e-30
7.71661e-30
1.38106e-29
2.46692e-29
4.39869e-29
7.83029e-29
1.3918e-28
2.47044e-28
4.37944e-28
7.75455e-28
1.37161e-27
2.42368e-27
4.27879e-27
7.54734e-27
1.3302e-26
2.3427e-26
4.12296e-26
7.25124e-26
1.27448e-25
2.23864e-25
3.9298e-25
6.89457e-25
1.20894e-24
2.1187e-24
3.71118e-24
6.49728e-24
1.13692e-23
1.98844e-23
3.47602e-23
6.07354e-23
1.06073e-22
1.85176e-22
3.23132e-22
5.63651e-22
9.82884e-22
1.71352e-21
2.98683e-21
5.20624e-21
9.07599e-21
1.58275e-20
2.76182e-20
4.8238e-20
8.43665e-20
1.47826e-19
2.59649e-19
4.57498e-19
8.09276e-19
1.43853e-18
2.57295e-18
4.64134e-18
8.48565e-18
1.58967e-17
3.11563e-17
6.58479e-17
1.5609e-16
4.07707e-16
1.13014e-15
3.13914e-15
8.0811e-15
1.76253e-14
2.65637e-42
5.58284e-42
1.17684e-41
2.46693e-41
5.14282e-41
1.06635e-40
2.19932e-40
4.51229e-40
9.20968e-40
1.87005e-39
3.77781e-39
7.59328e-39
1.51858e-38
3.02191e-38
5.98381e-38
1.17908e-37
2.31203e-37
4.51175e-37
8.76223e-37
1.69366e-36
3.25846e-36
6.24037e-36
1.18978e-35
2.25859e-35
4.26949e-35
8.03788e-35
1.50728e-34
2.81571e-34
5.24058e-34
9.71885e-34
1.79611e-33
3.30798e-33
6.07203e-33
1.11091e-32
2.02596e-32
3.68334e-32
6.67671e-32
1.20687e-31
2.17573e-31
3.91273e-31
7.02049e-31
1.25704e-30
2.24648e-30
4.00778e-30
7.1387e-30
1.26973e-29
2.25545e-29
4.0017e-29
7.09234e-29
1.25578e-28
2.22156e-28
3.92692e-28
6.93624e-28
1.22432e-27
2.15967e-27
3.8073e-27
6.7081e-27
1.18126e-26
2.07902e-26
3.65711e-26
6.42971e-26
1.12987e-25
1.98449e-25
3.48384e-25
6.11301e-25
1.07208e-24
1.87919e-24
3.29215e-24
5.7643e-24
1.00871e-23
1.76418e-23
3.08371e-23
5.38702e-23
9.4053e-23
1.64125e-22
2.86271e-22
4.99119e-22
8.6995e-22
1.51601e-21
2.64179e-21
4.60459e-21
8.0298e-21
1.40148e-20
2.44914e-20
4.28731e-20
7.52178e-20
1.3231e-19
2.33412e-19
4.13043e-19
7.33488e-19
1.31037e-18
2.38387e-18
4.56368e-18
9.55294e-18
2.30403e-17
6.50665e-17
2.36114e-16
1.19582e-15
5.86177e-15
1.88828e-14
9.1941e-30
1.10831e-29
1.49261e-29
1.89723e-29
2.28893e-29
2.64292e-29
2.93615e-29
3.14863e-29
3.26534e-29
3.2777e-29
3.18462e-29
2.99283e-29
2.71661e-29
2.3772e-29
2.0015e-29
1.62031e-29
1.26673e-29
9.7657e-30
7.94565e-30
7.84657e-30
2.38489e-28
2.67845e-28
3.2429e-28
3.83119e-28
4.3809e-28
4.85104e-28
5.20999e-28
5.43375e-28
5.50665e-28
5.42208e-28
5.18344e-28
4.80417e-28
4.30722e-28
3.72461e-28
3.09584e-28
2.46578e-28
1.88222e-28
1.39539e-28
1.06291e-28
9.63824e-29
6.02755e-27
6.34196e-27
7.00377e-27
7.6827e-27
8.29331e-27
8.77571e-27
9.08751e-27
9.20058e-27
9.09961e-27
8.78135e-27
8.25522e-27
7.5428e-27
6.67727e-27
5.70362e-27
4.67711e-27
3.66113e-27
2.72398e-27
1.93684e-27
1.37516e-27
1.13567e-27
1.44035e-25
1.42536e-25
1.46335e-25
1.50273e-25
1.5339e-25
1.54976e-25
1.54506e-25
1.51635e-25
1.46189e-25
1.38142e-25
1.27623e-25
1.14901e-25
1.0039e-25
8.46615e-26
6.84376e-26
5.25802e-26
3.80503e-26
2.58588e-26
1.701e-26
1.26517e-26
3.2302e-24
3.02231e-24
2.91451e-24
2.8237e-24
2.73665e-24
2.644e-24
2.53828e-24
2.41392e-24
2.26751e-24
2.09732e-24
1.90369e-24
1.68852e-24
1.45577e-24
1.2117e-24
9.64972e-25
7.2682e-25
5.10474e-25
3.30342e-25
2.0006e-25
1.32415e-25
6.76697e-23
6.01899e-23
5.48983e-23
5.04527e-23
4.65983e-23
4.31428e-23
3.9923e-23
3.68054e-23
3.36907e-23
3.05058e-23
2.72081e-23
2.37783e-23
2.02319e-23
1.66202e-23
1.30357e-23
9.61615e-24
6.54002e-24
4.01339e-24
2.22235e-24
1.29429e-24
1.3188e-21
1.12121e-21
9.7218e-22
8.50712e-22
7.50719e-22
6.67165e-22
5.95698e-22
5.32688e-22
4.7536e-22
4.21533e-22
3.69587e-22
3.18404e-22
2.67487e-22
2.16949e-22
1.67583e-22
1.20968e-22
7.94729e-23
4.60293e-23
2.31304e-23
1.17497e-23
2.38148e-20
1.9458e-20
1.6102e-20
1.34491e-20
1.13561e-20
9.69454e-21
8.35593e-21
7.25047e-21
6.30978e-21
5.48218e-21
4.72794e-21
4.01824e-21
3.33555e-21
2.67282e-21
2.03362e-21
1.43527e-21
9.08508e-22
4.93993e-22
2.2361e-22
9.8538e-23
3.96717e-19
3.1327e-19
2.4816e-19
1.98118e-19
1.6013e-19
1.31276e-19
1.09188e-19
9.19216e-20
7.80148e-20
6.64192e-20
5.63651e-20
4.72908e-20
3.88248e-20
3.07645e-20
2.30646e-20
1.59067e-20
9.67546e-21
4.91235e-21
1.99119e-21
7.59139e-22
6.06263e-18
4.65579e-18
3.53946e-18
2.70258e-18
2.0901e-18
1.64324e-18
1.31688e-18
1.07399e-18
8.88008e-19
7.40477e-19
6.18463e-19
5.12618e-19
4.16646e-19
3.26855e-19
2.41628e-19
1.62805e-19
9.49467e-20
4.48387e-20
1.6223e-20
5.33581e-21
6.17127e-17
4.66641e-17
3.43468e-17
2.52051e-17
1.86834e-17
1.4111e-17
1.09074e-17
8.63172e-18
6.97072e-18
5.71742e-18
4.7291e-18
3.90821e-18
3.18592e-18
2.51935e-18
1.88469e-18
1.28594e-18
7.54989e-19
3.5097e-19
1.18989e-19
3.38487e-20
2.85755e-16
2.17516e-16
1.59535e-16
1.15904e-16
8.47999e-17
6.32338e-17
4.83631e-17
3.80041e-17
3.0609e-17
2.51413e-17
2.09081e-17
1.74393e-17
1.4405e-17
1.15888e-17
8.86717e-18
6.23066e-18
3.80997e-18
1.86418e-18
6.55834e-19
1.83491e-19
9.25715e-16
7.1667e-16
5.29427e-16
3.8479e-16
2.80495e-16
2.08092e-16
1.58512e-16
1.24406e-16
1.00464e-16
8.30424e-17
6.97383e-17
5.89382e-17
4.95061e-17
4.06609e-17
3.19286e-17
2.32021e-17
1.48508e-17
7.74043e-18
2.93143e-18
8.44703e-19
2.36437e-15
1.87829e-15
1.40893e-15
1.03146e-15
7.53542e-16
5.59102e-16
4.2611e-16
3.35241e-16
2.72137e-16
2.26881e-16
1.92805e-16
1.65414e-16
1.41527e-16
1.18844e-16
9.58793e-17
7.20928e-17
4.82623e-17
2.67549e-17
1.10037e-17
3.36869e-18
5.04462e-15
4.15078e-15
3.18703e-15
2.36522e-15
1.74084e-15
1.29739e-15
9.92688e-16
7.85029e-16
6.4197e-16
5.40688e-16
4.65571e-16
4.059e-16
3.53968e-16
3.04001e-16
2.51964e-16
1.95845e-16
1.36789e-16
8.02699e-17
3.56938e-17
1.17945e-17
9.29559e-15
8.00219e-15
6.34164e-15
4.80212e-15
3.58007e-15
2.69183e-15
2.07491e-15
1.65356e-15
1.36469e-15
1.16245e-15
1.01489e-15
8.99498e-16
7.99651e-16
7.02327e-16
5.9756e-16
4.79344e-16
3.48266e-16
2.15158e-16
1.02579e-16
3.67093e-17
1.51199e-14
1.37661e-14
1.13564e-14
8.83313e-15
6.70848e-15
5.11325e-15
3.98526e-15
3.20885e-15
2.67706e-15
2.30827e-15
2.04389e-15
1.84139e-15
1.66815e-15
1.49727e-15
1.30631e-15
1.07941e-15
8.13207e-16
5.26199e-16
2.66724e-16
1.02802e-16
2.20688e-14
2.14903e-14
1.86131e-14
1.49749e-14
1.16579e-14
9.05361e-15
7.16159e-15
5.8402e-15
4.932e-15
4.3071e-15
3.86783e-15
3.54052e-15
3.26601e-15
2.99252e-15
2.67338e-15
2.27085e-15
1.76852e-15
1.1929e-15
6.38031e-16
2.62295e-16
2.93367e-14
3.08814e-14
2.832e-14
2.37512e-14
1.90784e-14
1.517e-14
1.2218e-14
1.01104e-14
8.65041e-15
7.65248e-15
6.96691e-15
6.4749e-15
6.07574e-15
5.67555e-15
5.18304e-15
4.51608e-15
3.62489e-15
2.53752e-15
1.4225e-15
6.17629e-16
3.61326e-14
4.14388e-14
4.06506e-14
3.58219e-14
2.98469e-14
2.43792e-14
2.00317e-14
1.68376e-14
1.46e-14
1.30802e-14
1.20648e-14
1.13733e-14
1.08429e-14
1.03115e-14
9.60943e-15
8.56988e-15
7.06938e-15
5.11512e-15
2.98686e-15
1.35871e-15
1.75141e-210
1.30964e-210
9.02265e-211
6.45166e-211
5.14343e-211
4.5827e-211
4.37081e-211
4.26798e-211
4.14717e-211
3.95078e-211
3.66324e-211
3.29603e-211
2.87724e-211
2.4473e-211
2.0569e-211
1.76783e-211
1.65617e-211
1.80418e-211
2.24081e-211
2.77644e-211
1.48426e-208
1.09744e-208
7.50937e-209
5.35904e-209
4.2812e-209
3.82879e-209
3.66478e-209
3.58861e-209
3.49433e-209
3.33391e-209
3.09448e-209
2.78597e-209
2.43243e-209
2.06843e-209
1.73723e-209
1.49153e-209
1.39671e-209
1.52535e-209
1.90848e-209
2.39308e-209
1.23457e-206
9.02213e-207
6.13042e-207
4.36715e-207
3.49709e-207
3.13997e-207
3.01652e-207
2.96226e-207
2.89055e-207
2.76208e-207
2.56643e-207