/*--------------------------------*- C++ -*----------------------------------*\
| =========                 |                                                 |
| \\      /  F ield         | OpenFOAM: The Open Source CFD Toolbox           |
|  \\    /   O peration     | Version:  2.1.0                                 |
|   \\  /    A nd           | Web:      www.OpenFOAM.org                      |
|    \\/     M anipulation  |                                                 |
\*---------------------------------------------------------------------------*/
FoamFile
{
    version     2.0;
    format      ascii;
    class       volScalarField;
    location    "0.09";
    object      C2;
}
// * * * * * * * * * * * * * * * * * * * * * * * * * * * * * * * * * * * * * //

dimensions      [0 0 0 0 0 0 0];

internalField   nonuniform List<scalar> 
6400
(
4.68895e-31
8.31688e-31
1.55605e-30
2.90792e-30
5.40826e-30
1.00084e-29
1.84292e-29
3.37667e-29
6.15629e-29
1.11686e-28
2.01621e-28
3.62187e-28
6.4743e-28
1.15165e-27
2.03856e-27
3.59092e-27
6.29463e-27
1.09806e-26
1.90626e-26
3.29343e-26
5.66287e-26
9.69085e-26
1.65059e-25
2.79823e-25
4.72185e-25
7.93129e-25
1.32616e-24
2.20741e-24
3.65783e-24
6.03441e-24
9.91132e-24
1.6208e-23
2.63903e-23
4.27851e-23
6.90704e-23
1.11035e-22
1.77752e-22
2.83384e-22
4.49947e-22
7.11525e-22
1.12067e-21
1.7581e-21
2.74725e-21
4.27613e-21
6.63e-21
1.02398e-20
1.57539e-20
2.41438e-20
3.68588e-20
5.60522e-20
8.49086e-20
1.28117e-19
1.92552e-19
2.88241e-19
4.29748e-19
6.38117e-19
9.43602e-19
1.38948e-18
2.03732e-18
2.97422e-18
4.32273e-18
6.25417e-18
9.0066e-18
1.29086e-17
1.84106e-17
2.61254e-17
3.68805e-17
5.17838e-17
7.23056e-17
1.00378e-16
1.38515e-16
1.89946e-16
2.58775e-16
3.50134e-16
4.70346e-16
6.27058e-16
8.29317e-16
1.08755e-15
1.41339e-15
1.81928e-15
2.3177e-15
2.9201e-15
3.63512e-15
4.46641e-15
5.40967e-15
6.44918e-15
7.55412e-15
8.6751e-15
9.74188e-15
1.06636e-14
1.13334e-14
1.16395e-14
1.14876e-14
1.08334e-14
9.7133e-15
8.24987e-15
6.48481e-15
4.57133e-15
2.74094e-15
1.24771e-15
6.16266e-31
1.10146e-30
2.06398e-30
3.86061e-30
7.18663e-30
1.33124e-29
2.45391e-29
4.50128e-29
8.21665e-29
1.49258e-28
2.69816e-28
4.85386e-28
8.68961e-28
1.54814e-27
2.74484e-27
4.84313e-27
8.50431e-27
1.48614e-26
2.58461e-26
4.47352e-26
7.70607e-26
1.32116e-25
2.25437e-25
3.82878e-25
6.47249e-25
1.08912e-24
1.82426e-24
3.04175e-24
5.04896e-24
8.34327e-24
1.3726e-23
2.24821e-23
3.66634e-23
5.95309e-23
9.62459e-23
1.54942e-22
2.48379e-22
3.96498e-22
6.30324e-22
9.9793e-22
1.5735e-21
2.47106e-21
3.86509e-21
6.02159e-21
9.34434e-21
1.44438e-20
2.22389e-20
3.41075e-20
5.21065e-20
7.92938e-20
1.20195e-19
1.81479e-19
2.72927e-19
4.08823e-19
6.09927e-19
9.0626e-19
1.34103e-18
1.97609e-18
2.89956e-18
4.23621e-18
6.16181e-18
8.92243e-18
1.28605e-17
1.84492e-17
2.63385e-17
3.74139e-17
5.28735e-17
7.43245e-17
1.03904e-16
1.44428e-16
1.99566e-16
2.74048e-16
3.73896e-16
5.0667e-16
6.81712e-16
9.10356e-16
1.20607e-15
1.58445e-15
2.063e-15
2.66054e-15
3.39619e-15
4.28767e-15
5.34884e-15
6.58624e-15
7.99471e-15
9.55198e-15
1.12128e-14
1.29034e-14
1.45174e-14
1.59161e-14
1.69359e-14
1.74065e-14
1.71856e-14
1.62087e-14
1.45293e-14
1.23481e-14
9.72197e-15
6.91809e-15
4.30541e-15
2.25238e-15
8.43664e-31
1.51791e-30
2.85598e-30
5.36273e-30
1.00226e-29
1.86422e-29
3.45092e-29
6.35768e-29
1.1657e-28
2.12713e-28
3.86295e-28
6.98162e-28
1.25575e-27
2.24778e-27
4.0041e-27
7.0983e-27
1.25227e-26
2.19853e-26
3.84111e-26
6.67841e-26
1.15553e-25
1.98971e-25
3.40958e-25
5.81468e-25
9.86899e-25
1.66708e-24
2.80278e-24
4.69017e-24
7.81214e-24
1.29524e-23
2.13769e-23
3.51211e-23
5.74431e-23
9.35337e-23
1.51626e-22
2.44722e-22
3.93262e-22
6.29241e-22
1.00253e-21
1.59052e-21
2.51285e-21
3.9536e-21
6.19492e-21
9.66747e-21
1.50258e-20
2.32605e-20
3.5865e-20
5.50806e-20
8.42571e-20
1.2838e-19
1.94838e-19
2.94529e-19
4.4346e-19
6.65033e-19
9.93303e-19
1.47759e-18
2.18899e-18
3.22942e-18
4.74427e-18
6.93986e-18
1.01072e-17
1.46547e-17
2.11516e-17
3.03866e-17
4.34449e-17
6.18095e-17
8.74915e-17
1.23197e-16
1.72535e-16
2.40277e-16
3.32665e-16
4.57776e-16
6.25939e-16
8.50183e-16
1.1467e-15
1.53525e-15
2.03948e-15
2.68703e-15
3.50921e-15
4.54017e-15
5.81522e-15
7.36809e-15
9.22666e-15
1.14071e-14
1.39058e-14
1.66901e-14
1.96867e-14
2.27714e-14
2.57603e-14
2.84089e-14
3.04237e-14
3.14944e-14
3.13531e-14
2.98603e-14
2.70953e-14
2.33106e-14
1.86704e-14
1.36932e-14
9.05248e-15
5.41154e-15
1.12988e-30
2.04645e-30
3.87296e-30
7.31478e-30
1.37521e-29
2.57329e-29
4.79248e-29
8.88328e-29
1.63878e-28
3.00876e-28
5.4975e-28
9.99633e-28
1.80886e-27
3.2572e-27
5.83647e-27
1.04067e-26
1.84639e-26
3.25967e-26
5.72612e-26
1.00087e-25
1.74072e-25
3.0124e-25
5.18721e-25
8.88786e-25
1.51535e-24
2.57093e-24
4.34056e-24
7.29275e-24
1.2194e-23
2.0292e-23
3.36083e-23
5.54027e-23
9.09062e-23
1.48475e-22
2.41394e-22
3.90692e-22
6.29499e-22
1.00978e-21
1.61269e-21
2.5644e-21
4.06027e-21
6.40142e-21
1.00501e-20
1.57127e-20
2.44646e-20
3.79355e-20
5.85851e-20
9.01098e-20
1.38041e-19
2.10622e-19
3.2008e-19
4.8448e-19
7.30381e-19
1.09667e-18
1.64e-18
2.44254e-18
3.62288e-18
5.35133e-18
7.87122e-18
1.15284e-17
1.68115e-17
2.44077e-17
3.52765e-17
5.07506e-17
7.26678e-17
1.03546e-16
1.4681e-16
2.0708e-16
2.90541e-16
4.05399e-16
5.62434e-16
7.7566e-16
1.06309e-15
1.44757e-15
1.95771e-15
2.62867e-15
3.50295e-15
4.63072e-15
6.06968e-15
7.88391e-15
1.01414e-14
1.29098e-14
1.62491e-14
2.02021e-14
2.47802e-14
2.99463e-14
3.55938e-14
4.15251e-14
4.74328e-14
5.28917e-14
5.73711e-14
6.02818e-14
6.10706e-14
5.93682e-14
5.51657e-14
4.86944e-14
4.02974e-14
3.09206e-14
2.18753e-14
1.45798e-14
1.46164e-30
2.66486e-30
5.07522e-30
9.64645e-30
1.82523e-29
3.43744e-29
6.44325e-29
1.20201e-28
2.23163e-28
4.12318e-28
7.58087e-28
1.38696e-27
2.52494e-27
4.57366e-27
8.24307e-27
1.47813e-26
2.63708e-26
4.6807e-26
8.2655e-26
1.45209e-25
2.53794e-25
4.41303e-25
7.63415e-25
1.31389e-24
2.24978e-24
3.83277e-24
6.49668e-24
1.0957e-23
1.83877e-23
3.07057e-23
5.10253e-23
8.43813e-23
1.38874e-22
2.27474e-22
3.70849e-22
6.01782e-22
9.72028e-22
1.56292e-21
2.50172e-21
3.9866e-21
6.32487e-21
9.99098e-21
1.57142e-20
2.46106e-20
3.83813e-20
5.96073e-20
9.21883e-20
1.41992e-19
2.17807e-19
3.32744e-19
5.06275e-19
7.67188e-19
1.15787e-18
1.74041e-18
2.60542e-18
3.88442e-18
5.76749e-18
8.52794e-18
1.25568e-17
1.84106e-17
2.68773e-17
3.90662e-17
5.65301e-17
8.14297e-17
1.16752e-16
1.66602e-16
2.36576e-16
3.34252e-16
4.69814e-16
6.56827e-16
9.13205e-16
1.26237e-15
1.73461e-15
2.36867e-15
3.21342e-15
4.32963e-15
5.79162e-15
7.68844e-15
1.01245e-14
1.32184e-14
1.71003e-14
2.19059e-14
2.77661e-14
3.47913e-14
4.30489e-14
5.25335e-14
6.31292e-14
7.45672e-14
8.63831e-14
9.78865e-14
1.08157e-13
1.16095e-13
1.20545e-13
1.20528e-13
1.15569e-13
1.0567e-13
9.12102e-14
7.3748e-14
5.58195e-14
4.06107e-14
1.81973e-30
3.33801e-30
6.3952e-30
1.22284e-29
2.32776e-29
4.41036e-29
8.31662e-29
1.56073e-28
2.91464e-28
5.41623e-28
1.00147e-27
1.84242e-27
3.37229e-27
6.1409e-27
1.11248e-26
2.0049e-26
3.59433e-26
6.41003e-26
1.13713e-25
2.00662e-25
3.52227e-25
6.15012e-25
1.0682e-24
1.84557e-24
3.17198e-24
5.42325e-24
9.22427e-24
1.56085e-23
2.62765e-23
4.40116e-23
7.33467e-23
1.21627e-22
2.00694e-22
3.29547e-22
5.38521e-22
8.75815e-22
1.41765e-21
2.28401e-21
3.66285e-21
5.84736e-21
9.2927e-21
1.47024e-20
2.31591e-20
3.63214e-20
5.67194e-20
8.81957e-20
1.36561e-19
2.10565e-19
3.23325e-19
4.9442e-19
7.52951e-19
1.14198e-18
1.72495e-18
2.5949e-18
3.88769e-18
5.80075e-18
8.6197e-18
1.27557e-17
1.87979e-17
2.75862e-17
4.03115e-17
5.86542e-17
8.49716e-17
1.22553e-16
1.75958e-16
2.51475e-16
3.57711e-16
5.06373e-16
7.13268e-16
9.99576e-16
1.39344e-15
1.93194e-15
2.66345e-15
3.65042e-15
4.97256e-15
6.73028e-15
9.04827e-15
1.20787e-14
1.6004e-14
2.10373e-14
2.7421e-14
3.54203e-14
4.53105e-14
5.73561e-14
7.1777e-14
8.87007e-14
1.081e-13
1.29714e-13
1.52957e-13
1.76835e-13
1.99886e-13
2.20182e-13
2.35449e-13
2.43346e-13
2.42008e-13
2.30516e-13
2.08594e-13
1.78221e-13
1.43881e-13
1.12369e-13
2.1746e-30
4.00995e-30
7.72214e-30
1.48423e-29
2.84005e-29
5.40894e-29
1.02521e-28
1.9337e-28
3.62914e-28
6.7768e-28
1.259e-27
2.3269e-27
4.27823e-27
7.8246e-27
1.4235e-26
2.57594e-26
4.63645e-26
8.30034e-26
1.47795e-25
2.61742e-25
4.61037e-25
8.07696e-25
1.40739e-24
2.43914e-24
4.20463e-24
7.20937e-24
1.22958e-23
2.08604e-23
3.52055e-23
5.91075e-23
9.87274e-23
1.64066e-22
2.71273e-22
4.46299e-22
7.30635e-22
1.1903e-21
1.9298e-21
3.11387e-21
5.00083e-21
7.99398e-21
1.272e-20
2.01485e-20
3.17725e-20
4.9881e-20
7.79685e-20
1.21345e-19
1.88047e-19
2.90182e-19
4.45912e-19
6.82367e-19
1.03989e-18
1.57825e-18
2.38553e-18
3.59107e-18
5.3839e-18
8.0391e-18
1.19551e-17
1.77064e-17
2.61177e-17
3.83668e-17
5.61283e-17
8.17709e-17
1.18628e-16
1.71366e-16
2.46483e-16
3.52974e-16
5.03219e-16
7.14151e-16
1.00878e-15
1.41817e-15
1.98393e-15
2.76138e-15
3.82346e-15
5.26548e-15
7.2107e-15
9.81685e-15
1.32832e-14
1.78582e-14
2.38463e-14
3.16145e-14
4.15944e-14
5.42806e-14
7.02197e-14
8.99873e-14
1.14146e-13
1.43177e-13
1.77389e-13
2.16782e-13
2.60882e-13
3.0855e-13
3.57797e-13
4.05633e-13
4.48048e-13
4.80199e-13
4.97008e-13
4.94795e-13
4.7068e-13
4.25347e-13
3.65037e-13
3.02403e-13
2.48859e-30
4.60802e-30
8.91002e-30
1.71959e-29
3.30402e-29
6.3185e-29
1.20248e-28
2.27714e-28
4.29044e-28
8.0422e-28
1.4996e-27
2.78148e-27
5.13159e-27
9.41638e-27
1.71853e-26
3.11931e-26
5.63092e-26
1.01091e-25
1.80489e-25
3.20477e-25
5.65907e-25
9.93806e-25
1.73568e-24
3.01479e-24
5.20802e-24
8.94802e-24
1.5291e-23
2.59903e-23
4.39415e-23
7.38998e-23
1.23634e-22
2.0577e-22
3.4072e-22
5.61317e-22
9.2011e-22
1.50078e-21
2.43594e-21
3.93471e-21
6.32533e-21
1.01206e-20
1.61178e-20
2.55512e-20
4.03224e-20
6.3349e-20
9.90867e-20
1.54311e-19
2.39282e-19
3.69466e-19
5.68083e-19
8.69843e-19
1.32641e-18
2.01439e-18
3.04682e-18
4.58988e-18
6.88684e-18
1.02922e-17
1.53205e-17
2.27154e-17
3.35466e-17
4.93468e-17
7.23012e-17
1.05512e-16
1.53364e-16
2.22019e-16
3.20105e-16
4.59629e-16
6.57223e-16
9.35796e-16
1.32672e-15
1.87272e-15
2.63157e-15
3.68091e-15
5.12435e-15
7.09908e-15
9.78524e-15
1.34173e-14
1.82971e-14
2.48086e-14
3.34349e-14
4.4774e-14
5.95536e-14
7.86416e-14
1.03047e-13
1.33908e-13
1.72456e-13
2.19929e-13
2.77463e-13
3.459e-13
4.2551e-13
5.15659e-13
6.14386e-13
7.17955e-13
8.20444e-13
9.13494e-13
9.86429e-13
1.0282e-12
1.02976e-12
9.84716e-13
8.96259e-13
7.81908e-13
2.72217e-30
5.0551e-30
9.80228e-30
1.89724e-29
3.65597e-29
7.01183e-29
1.33825e-28
2.54134e-28
4.80126e-28
9.0234e-28
1.68682e-27
3.13632e-27
5.79963e-27
1.06657e-26
1.95062e-26
3.54766e-26
6.41638e-26
1.15402e-25
2.06398e-25
3.67087e-25
6.4924e-25
1.14188e-24
1.99717e-24
3.4738e-24
6.00893e-24
1.03373e-23
1.76865e-23
3.00971e-23
5.09413e-23
8.57627e-23
1.43625e-22
2.39271e-22
3.9655e-22
6.53854e-22
1.07266e-21
1.75095e-21
2.84404e-21
4.59705e-21
7.39489e-21
1.18392e-20
1.8866e-20
2.99248e-20
4.72508e-20
7.42747e-20
1.1624e-19
1.81125e-19
2.81021e-19
4.34173e-19
6.67999e-19
1.02353e-18
1.56192e-18
2.37397e-18
3.59391e-18
5.41942e-18
8.14045e-18
1.21806e-17
1.81562e-17
2.69606e-17
3.98832e-17
5.87776e-17
8.62979e-17
1.26228e-16
1.83941e-16
2.67032e-16
3.86193e-16
5.56407e-16
7.98575e-16
1.14171e-15
1.62592e-15
2.30629e-15
3.25816e-15
4.5839e-15
6.4219e-15
8.95791e-15
1.24396e-14
1.71945e-14
2.36532e-14
3.23756e-14
4.40824e-14
5.96913e-14
8.03549e-14
1.07499e-13
1.42852e-13
1.88464e-13
2.46694e-13
3.20175e-13
4.11697e-13
5.24028e-13
6.59462e-13
8.19413e-13
1.00365e-12
1.20939e-12
1.43025e-12
1.65501e-12
1.86645e-12
2.04072e-12
2.15359e-12
2.18051e-12
2.10358e-12
1.92751e-12
2.8429e-30
5.28708e-30
1.02671e-29
1.99017e-29
3.8408e-29
7.37731e-29
1.41007e-28
2.68156e-28
5.0732e-28
9.54718e-28
1.78701e-27
3.32666e-27
6.15875e-27
1.13387e-26
2.07588e-26
3.77927e-26
6.84181e-26
1.23165e-25
2.20474e-25
3.92447e-25
6.9464e-25
1.22265e-24
2.13999e-24
3.7248e-24
6.44744e-24
1.10988e-23
1.90014e-23
3.23541e-23
5.47935e-23
9.23004e-23
1.54659e-22
2.57791e-22
4.27468e-22
7.05196e-22
1.15748e-21
1.89034e-21
3.07199e-21
4.96799e-21
7.99566e-21
1.28077e-20
2.04202e-20
3.24081e-20
5.12016e-20
8.05346e-20
1.26119e-19
1.96657e-19
3.05351e-19
4.72149e-19
7.27075e-19
1.11513e-18
1.70352e-18
2.5922e-18
3.92929e-18
5.93343e-18
8.92618e-18
1.33787e-17
1.99786e-17
2.97262e-17
4.40707e-17
6.51042e-17
9.58358e-17
1.40577e-16
2.05484e-16
2.99309e-16
4.34453e-16
6.28416e-16
9.05793e-16
1.30101e-15
1.86205e-15
2.65554e-15
3.77351e-15
5.34257e-15
7.53595e-15
1.05895e-14
1.48227e-14
2.06653e-14
2.86924e-14
3.96673e-14
5.4596e-14
7.47919e-14
1.01953e-13
1.38249e-13
1.86414e-13
2.4984e-13
3.32648e-13
4.39731e-13
5.76705e-13
7.49739e-13
9.65357e-13
1.22986e-12
1.54825e-12
1.92288e-12
2.3515e-12
2.82489e-12
3.32379e-12
3.81546e-12
4.24977e-12
4.56067e-12
4.67122e-12
4.50468e-12
2.8334e-30
5.2688e-30
1.02306e-29
1.98291e-29
3.82642e-29
7.34907e-29
1.40457e-28
2.67094e-28
5.05283e-28
9.50849e-28
1.77973e-27
3.31306e-27
6.13359e-27
1.12925e-26
2.06748e-26
3.76412e-26
6.8147e-26
1.22684e-25
2.19628e-25
3.90971e-25
6.92089e-25
1.21828e-24
2.13258e-24
3.71236e-24
6.42678e-24
1.10649e-23
1.89465e-23
3.22667e-23
5.46567e-23
9.2091e-23
1.54347e-22
2.57341e-22
4.26852e-22
7.04414e-22
1.15662e-21
1.88969e-21
3.07227e-21
4.97083e-21
8.00441e-21
1.2829e-20
2.04669e-20
3.25043e-20
5.13916e-20
8.08983e-20
1.26799e-19
1.97905e-19
3.07605e-19
4.76166e-19
7.34147e-19
1.12745e-18
1.72479e-18
2.62858e-18
3.99103e-18
6.03744e-18
9.10017e-18
1.36678e-17
2.04562e-17
3.05103e-17
4.53508e-17
6.71829e-17
9.91936e-17
1.45974e-16
2.14114e-16
3.13046e-16
4.56217e-16
6.62742e-16
9.59692e-16
1.38528e-15
1.99326e-15
2.85896e-15
4.08759e-15
5.82551e-15
8.27553e-15
1.17175e-14
1.65361e-14
2.32573e-14
3.25972e-14
4.55251e-14
6.33456e-14
8.78025e-14
1.2121e-13
1.66615e-13
2.27983e-13
3.10424e-13
4.20428e-13
5.66102e-13
7.57358e-13
1.00601e-12
1.3257e-12
1.73141e-12
2.23891e-12
2.86344e-12
3.61602e-12
4.50012e-12
5.50625e-12
6.6042e-12
7.73181e-12
8.77747e-12
9.54834e-12
9.72749e-12
2.69543e-30
5.00401e-30
9.70083e-30
1.87717e-29
3.61648e-29
6.93468e-29
1.32329e-28
2.51254e-28
4.74627e-28
8.91923e-28
1.66725e-27
3.09986e-27
5.73225e-27
1.05422e-26
1.92818e-26
3.5072e-26
6.34404e-26
1.14119e-25
2.04142e-25
3.63156e-25
6.42448e-25
1.13025e-24
1.97747e-24
3.44075e-24
5.9541e-24
1.02474e-23
1.75413e-23
2.98662e-23
5.05806e-23
8.52117e-23
1.42806e-22
2.38097e-22
3.94954e-22
6.51855e-22
1.07052e-21
1.7495e-21
2.84532e-21
4.60556e-21
7.41992e-21
1.18991e-20
1.89961e-20
3.01913e-20
4.77749e-20
7.52757e-20
1.18109e-19
1.84551e-19
2.87205e-19
4.45186e-19
6.87385e-19
1.0573e-18
1.62022e-18
2.47372e-18
3.76326e-18
5.7048e-18
8.61805e-18
1.29747e-17
1.94685e-17
2.91163e-17
4.34047e-17
6.44991e-17
9.55455e-17
1.411e-16
2.07741e-16
3.0494e-16
4.46293e-16
6.51261e-16
9.47618e-16
1.37489e-15
1.98916e-15
2.86979e-15
4.12871e-15
5.92338e-15
8.47455e-15
1.20908e-14
1.72022e-14
2.44057e-14
3.45274e-14
4.87057e-14
6.85034e-14
9.6055e-14
1.34262e-13
1.87043e-13
2.59659e-13
3.59111e-13
4.94632e-13
6.78259e-13
9.25465e-13
1.2558e-12
1.69345e-12
2.2675e-12
3.01176e-12
3.96372e-12
5.16328e-12
6.64496e-12
8.43091e-12
1.05162e-11
1.28433e-11
1.52532e-11
1.73859e-11
1.85137e-11
2.44928e-30
4.53346e-30
8.76302e-30
1.69071e-29
3.24761e-29
6.20901e-29
1.18138e-28
2.23673e-28
4.21363e-28
7.89732e-28
1.47248e-27
2.73111e-27
5.03876e-27
9.24666e-27
1.68775e-26
3.06392e-26
5.53206e-26
9.93409e-26
1.77417e-25
3.1513e-25
5.56684e-25
9.78042e-25
1.709e-24
2.97011e-24
5.13402e-24
8.82701e-24
1.50958e-23
2.56805e-23
4.34586e-23
7.3164e-23
1.22544e-22
2.04216e-22
3.3862e-22
5.58717e-22
9.17397e-22
1.49914e-21
2.43822e-21
3.94719e-21
6.36089e-21
1.02046e-20
1.6299e-20
2.59207e-20
4.10475e-20
6.47319e-20
1.01667e-19
1.59038e-19
2.47812e-19
3.8466e-19
5.9484e-19
9.16484e-19
1.40697e-18
2.15235e-18
3.28125e-18
4.98535e-18
7.54939e-18
1.13951e-17
1.71452e-17
2.57165e-17
3.84553e-17
5.73321e-17
8.52245e-17
1.26322e-16
1.8671e-16
2.75203e-16
4.04535e-16
5.93062e-16
8.67172e-16
1.26472e-15
1.83985e-15
2.66989e-15
3.86495e-15
5.5815e-15
8.0414e-15
1.15585e-14
1.65756e-14
2.37163e-14
3.38567e-14
4.8224e-14
6.85331e-14
9.71736e-14
1.37464e-13
1.93997e-13
2.73101e-13
3.83453e-13
5.36885e-13
7.49407e-13
1.0425e-12
1.44464e-12
1.9931e-12
2.73572e-12
3.73252e-12
5.05658e-12
6.79364e-12
9.03854e-12
1.18822e-11
1.53906e-11
1.95595e-11
2.42189e-11
2.88273e-11
3.20647e-11
2.12908e-30
3.92426e-30
7.55443e-30
1.45152e-29
2.77662e-29
5.28667e-29
1.00179e-28
1.88914e-28
3.54495e-28
6.61885e-28
1.22957e-27
2.27249e-27
4.17836e-27
7.64271e-27
1.39063e-26
2.51698e-26
4.53154e-26
8.11517e-26
1.44554e-25
2.56118e-25
4.51363e-25
7.91213e-25
1.37958e-24
2.39273e-24
4.12804e-24
7.08458e-24
1.20954e-23
2.05437e-23
3.47147e-23
5.83644e-23
9.76359e-23
1.62526e-22
2.69228e-22
4.43841e-22
7.28245e-22
1.18933e-21
1.93346e-21
3.12901e-21
5.04145e-21
8.0875e-21
1.29187e-20
2.05497e-20
3.25546e-20
5.13659e-20
8.07289e-20
1.2639e-19
1.97135e-19
3.06348e-19
4.74356e-19
7.31924e-19
1.12547e-18
1.72481e-18
2.63465e-18
4.01153e-18
6.08882e-18
9.2135e-18
1.39e-17
2.09089e-17
3.1362e-17
4.69095e-17
6.9973e-17
1.04097e-16
1.5446e-16
2.28605e-16
3.37502e-16
4.97064e-16
7.30335e-16
1.07061e-15
1.56591e-15
2.28536e-15
3.3283e-15
4.83722e-15
7.01623e-15
1.01572e-14
1.4677e-14
2.11699e-14
3.04822e-14
4.38175e-14
6.2885e-14
9.01087e-14
1.28922e-13
1.84177e-13
2.62726e-13
3.74215e-13
5.3219e-13
7.55613e-13
1.0709e-12
1.51463e-12
2.13706e-12
3.00646e-12
4.21421e-12
5.88009e-12
8.15666e-12
1.12324e-11
1.53228e-11
2.06436e-11
2.73434e-11
3.53471e-11
4.39958e-11
5.12557e-11
1.77419e-30
3.25298e-30
6.23004e-30
1.19087e-29
2.2662e-29
4.29257e-29
8.09262e-29
1.5184e-28
2.83519e-28
5.26809e-28
9.74042e-28
1.79199e-27
3.28023e-27
5.97409e-27
1.08248e-26
1.95135e-26
3.49951e-26
6.24346e-26
1.10811e-25
1.95651e-25
3.43651e-25
6.00475e-25
1.0438e-24
1.80509e-24
3.1056e-24
5.31585e-24
9.05309e-24
1.53405e-23
2.58654e-23
4.33973e-23
7.24597e-23
1.20406e-22
1.99134e-22
3.27807e-22
5.37154e-22
8.76232e-22
1.42302e-21
2.30096e-21
3.70466e-21
5.93968e-21
9.48398e-21
1.50823e-20
2.38908e-20
3.76981e-20
5.9261e-20
9.28151e-20
1.44846e-19
2.2525e-19
3.49089e-19
5.39205e-19
8.30143e-19
1.274e-18
1.94912e-18
2.97298e-18
4.52131e-18
6.85625e-18
1.03679e-17
1.56352e-17
2.35158e-17
3.52766e-17
5.27856e-17
7.87907e-17
1.17326e-16
1.74301e-16
2.58359e-16
3.82117e-16
5.63957e-16
8.30624e-16
1.22097e-15
1.79133e-15
2.62334e-15
3.8351e-15
5.59731e-15
8.15646e-15
1.18682e-14
1.72454e-14
2.50271e-14
3.62781e-14
5.25321e-14
7.59983e-14
1.09859e-13
1.58698e-13
2.29121e-13
3.30653e-13
4.77021e-13
6.88021e-13
9.92176e-13
1.43056e-12
2.06217e-12
2.97145e-12
4.2784e-12
6.15164e-12
8.82394e-12
1.26078e-11
1.79098e-11
2.52118e-11
3.49932e-11
4.75019e-11
6.21761e-11
7.62874e-11
1.42073e-30
2.58911e-30
4.92924e-30
9.36605e-30
1.77167e-29
3.33575e-29
6.25132e-29
1.16601e-28
2.16456e-28
3.99904e-28
7.35261e-28
1.34528e-27
2.44937e-27
4.43763e-27
8.00001e-27
1.43503e-26
2.56125e-26
4.54836e-26
8.03647e-26
1.41281e-25
2.47119e-25
4.30071e-25
7.44717e-25
1.28312e-24
2.19979e-24
3.75273e-24
6.37062e-24
1.07623e-23
1.80942e-23
3.02769e-23
5.04248e-23
8.35924e-23
1.37945e-22
2.26618e-22
3.70646e-22
6.03578e-22
9.78695e-22
1.58028e-21
2.54116e-21
4.06978e-21
6.4922e-21
1.03164e-20
1.63314e-20
2.57579e-20
4.04789e-20
6.33896e-20
9.89272e-20
1.53872e-19
2.38554e-19
3.68666e-19
5.67985e-19
8.72436e-19
1.33616e-18
2.04054e-18
3.1076e-18
4.7199e-18
7.1499e-18
1.08033e-17
1.62832e-17
2.44835e-17
3.67274e-17
5.49696e-17
8.20916e-17
1.22335e-16
1.81932e-16
2.70027e-16
4.00015e-16
5.91497e-16
8.73111e-16
1.28666e-15
1.89313e-15
2.78137e-15
4.08077e-15
5.97972e-15
8.75234e-15
1.27976e-14
1.8696e-14
2.72931e-14
3.98209e-14
5.80765e-14
8.46845e-14
1.23485e-13
1.80108e-13
2.62827e-13
3.83833e-13
5.61153e-13
8.21529e-13
1.20479e-12
1.7705e-12
2.60802e-12
3.8518e-12
5.70409e-12
8.4675e-12
1.25881e-11
1.87085e-11
2.77125e-11
4.06828e-11
5.86261e-11
8.1588e-11
1.06414e-10
1.09616e-30
1.98456e-30
3.75463e-30
7.08929e-30
1.33248e-29
2.49282e-29
4.64183e-29
8.60302e-29
1.58697e-28
2.91363e-28
5.32396e-28
9.68194e-28
1.7523e-27
3.15617e-27
5.65734e-27
1.00915e-26
1.79137e-26
3.16441e-26
5.56261e-26
9.73064e-26
1.69388e-25
2.93433e-25
5.05856e-25
8.67849e-25
1.48175e-24
2.51789e-24
4.25838e-24
7.16839e-24
1.20113e-23
2.00343e-23
3.32661e-23
5.49916e-23
9.05079e-23
1.4832e-22
2.42027e-22
3.93286e-22
6.3645e-22
1.0258e-21
1.64679e-21
2.63346e-21
4.1953e-21
6.65862e-21
1.053e-20
1.65933e-20
2.60576e-20
4.07826e-20
6.36194e-20
9.89276e-20
1.53354e-19
2.37005e-19
3.65211e-19
5.61161e-19
8.59852e-19
1.31397e-18
2.00266e-18
3.04452e-18
4.61695e-18
6.98469e-18
1.05421e-17
1.58754e-17
2.38547e-17
3.57687e-17
5.35236e-17
7.99343e-17
1.19152e-16
1.77288e-16
2.63334e-16
3.90499e-16
5.7817e-16
8.54781e-16
1.26201e-15
1.86091e-15
2.74088e-15
4.03286e-15
5.92855e-15
8.70886e-15
1.27856e-14
1.8763e-14
2.75292e-14
4.03915e-14
5.92785e-14
8.70443e-14
1.27925e-13
1.88237e-13
2.7744e-13
4.09789e-13
6.06913e-13
9.01894e-13
1.34582e-12
2.0185e-12
3.04618e-12
4.63128e-12
7.10201e-12
1.09924e-11
1.71596e-11
2.69596e-11
4.23873e-11
6.59205e-11
9.93219e-11
1.39842e-10
8.17782e-31
1.47081e-30
2.76658e-30
5.19362e-30
9.70461e-30
1.80478e-29
3.34052e-29
6.15392e-29
1.12834e-28
2.05907e-28
3.73981e-28
6.76035e-28
1.21627e-27
2.17785e-27
3.88116e-27
6.88384e-27
1.21516e-26
2.13486e-26
3.73286e-26
6.49612e-26
1.12515e-25
1.93964e-25
3.32809e-25
5.68387e-25
9.66238e-25
1.63506e-24
2.7543e-24
4.61893e-24
7.71161e-24
1.28188e-23
2.12165e-23
3.49664e-23
5.73852e-23
9.37883e-23
1.52659e-22
2.47487e-22
3.99635e-22
6.42819e-22
1.03005e-21
1.64442e-21
2.61565e-21
4.14571e-21
6.548e-21
1.03073e-20
1.61713e-20
2.52899e-20
3.94263e-20
6.12771e-20
9.49556e-20
1.46719e-19
2.26064e-19
3.47368e-19
5.32345e-19
8.13718e-19
1.24069e-18
1.88708e-18
2.86346e-18
4.33503e-18
6.54824e-18
9.87005e-18
1.48459e-17
2.22851e-17
3.33871e-17
4.99262e-17
7.45242e-17
1.1105e-16
1.65208e-16
2.45397e-16
3.63974e-16
5.39112e-16
7.97517e-16
1.17842e-15
1.73944e-15
2.56524e-15
3.78018e-15
5.56716e-15
8.19534e-15
1.20614e-14
1.77508e-14
2.61301e-14
3.84846e-14
5.67286e-14
8.37239e-14
1.23772e-13
1.83381e-13
2.72465e-13
4.06281e-13
6.08559e-13
9.16747e-13
1.391e-12
2.13013e-12
3.30106e-12
5.19412e-12
8.32756e-12
1.36466e-11
2.28409e-11
3.8922e-11
6.66524e-11
1.11571e-10
1.73817e-10
5.97296e-31
1.06724e-30
1.99939e-30
3.7391e-30
6.95943e-30
1.28903e-29
2.37599e-29
4.35841e-29
7.95641e-29
1.4455e-28
2.61358e-28
4.70298e-28
8.42244e-28
1.50118e-27
2.66295e-27
4.70147e-27
8.26135e-27
1.44484e-26
2.51508e-26
4.35768e-26
7.51521e-26
1.2901e-25
2.20455e-25
3.75013e-25
6.35071e-25
1.07071e-24
1.79726e-24
3.0038e-24
4.99886e-24
8.28396e-24
1.36709e-23
2.24683e-23
3.67776e-23
5.996e-23
9.73715e-23
1.57514e-22
2.53839e-22
4.07544e-22
6.51933e-22
1.03915e-21
1.65057e-21
2.61282e-21
4.12227e-21
6.48266e-21
1.01624e-20
1.58817e-20
2.47453e-20
3.84429e-20
5.95526e-20
9.19982e-20
1.41737e-19
2.17793e-19
3.33804e-19
5.10335e-19
7.78329e-19
1.18425e-18
1.79774e-18
2.72296e-18
4.11539e-18
6.20677e-18
9.34186e-18
1.40327e-17
2.10388e-17
3.14849e-17
4.70342e-17
7.01436e-17
1.04438e-16
1.5526e-16
2.30477e-16
3.41668e-16
5.05861e-16
7.48091e-16
1.10516e-15
1.63114e-15
2.4056e-15
3.54554e-15
5.22332e-15
7.69313e-15
1.13305e-14
1.66915e-14
2.46021e-14
3.62939e-14
5.36109e-14
7.93308e-14
1.17666e-13
1.75059e-13
2.61466e-13
3.92484e-13
5.9296e-13
9.03377e-13
1.39168e-12
2.17646e-12
3.47445e-12
5.69994e-12
9.68426e-12
1.71282e-11
3.15983e-11
6.0247e-11
1.14842e-10
2.04682e-10
4.54575e-31
8.0609e-31
1.50788e-30
2.8175e-30
5.2396e-30
9.69585e-30
1.78539e-29
3.27148e-29
5.96528e-29
1.08242e-28
1.95455e-28
3.51229e-28
6.28103e-28
1.11783e-27
1.97986e-27
3.48988e-27
6.12231e-27
1.06895e-26
1.85758e-26
3.21295e-26
5.53143e-26
9.47915e-26
1.61703e-25
2.74603e-25
4.64253e-25
7.81427e-25
1.30958e-24
2.1853e-24
3.63118e-24
6.00858e-24
9.9016e-24
1.62508e-23
2.65649e-23
4.32544e-23
7.01571e-23
1.13361e-22
1.82488e-22
2.927e-22
4.67802e-22
7.45052e-22
1.18259e-21
1.87085e-21
2.95012e-21
4.63734e-21
7.26711e-21
1.13541e-20
1.76877e-20
2.7476e-20
4.25626e-20
6.57549e-20
1.01317e-19
1.5571e-19
2.38706e-19
3.65045e-19
5.5692e-19
8.47675e-19
1.28731e-18
1.95063e-18
2.94941e-18
4.45028e-18
6.70126e-18
1.00709e-17
1.51061e-17
2.26168e-17
3.38015e-17
5.04308e-17
7.5117e-17
1.11711e-16
1.65885e-16
2.45982e-16
3.64273e-16
5.3879e-16
7.96028e-16
1.17491e-15
1.73265e-15
2.55333e-15
3.76073e-15
5.53717e-15
8.15179e-15
1.20027e-14
1.76806e-14
2.6065e-14
3.84719e-14
5.68811e-14
8.42926e-14
1.25293e-13
1.86973e-13
2.80459e-13
4.23558e-13
6.45547e-13
9.96352e-13
1.56508e-12
2.51846e-12
4.18336e-12
7.23674e-12
1.31524e-11
2.53391e-11
5.18826e-11
1.10381e-10
2.26771e-10
3.99453e-16
3.36803e-16
3.68532e-16
4.18559e-16
4.67894e-16
5.1057e-16
5.44468e-16
5.68999e-16
5.84401e-16
5.91482e-16
5.91504e-16
5.86144e-16
5.77499e-16
5.6813e-16
5.61139e-16
5.60194e-16
5.69389e-16
5.9253e-16
6.30608e-16
6.73502e-16
1.14464e-15
1.04967e-15
1.1256e-15
1.23606e-15
1.34043e-15
1.42562e-15
1.48767e-15
1.52622e-15
1.54277e-15
1.53989e-15
1.52098e-15
1.49018e-15
1.45237e-15
1.4134e-15
1.38025e-15
1.36115e-15
1.36525e-15
1.40091e-15
1.46996e-15
1.55056e-15
3.45401e-15
3.28991e-15
3.42913e-15
3.62763e-15
3.80708e-15
3.94065e-15
4.02071e-15
4.04782e-15
4.02656e-15
3.96363e-15
3.86715e-15
3.74647e-15
3.61228e-15
3.47716e-15
3.35623e-15
3.26751e-15
3.23136e-15
3.26707e-15
3.38057e-15
3.52921e-15
1.05866e-14
1.01399e-14
1.02621e-14
1.04821e-14
1.0656e-14
1.07353e-14
1.07073e-14
1.05754e-14
1.03505e-14
1.00475e-14
9.68329e-15
9.27681e-15
8.84918e-15
8.42547e-15
8.03642e-15
7.71979e-15
7.51985e-15
7.48052e-15
7.62076e-15
7.86468e-15
3.18174e-14
3.027e-14
2.98119e-14
2.95326e-14
2.91722e-14
2.86532e-14
2.79607e-14
2.71053e-14
2.61092e-14
2.49991e-14
2.38048e-14
2.25578e-14
2.12937e-14
2.00568e-14
1.89043e-14
1.79112e-14
1.71701e-14
1.6779e-14
1.67954e-14
1.71029e-14
9.21872e-14
8.68186e-14
8.35064e-14
8.05839e-14
7.76202e-14
7.45125e-14
7.12538e-14
6.78678e-14
6.43877e-14
6.08463e-14
5.72775e-14
5.37146e-14
5.02003e-14
4.67964e-14
4.35966e-14
4.07382e-14
3.84062e-14
3.68164e-14
3.61348e-14
3.62369e-14
2.55485e-13
2.38234e-13
2.24633e-13
2.12002e-13
1.99784e-13
1.87917e-13
1.76427e-13
1.65337e-13
1.54659e-13
1.44377e-13
1.34464e-13
1.24887e-13
1.1564e-13
1.06761e-13
9.83656e-14
9.06735e-14
8.40374e-14
7.89288e-14
7.58116e-14
7.47447e-14
6.74719e-13
6.24044e-13
5.78846e-13
5.36085e-13
4.95665e-13
4.57871e-13
4.22821e-13
3.90444e-13
3.60547e-13
3.32845e-13
3.06995e-13
2.82661e-13
2.59569e-13
2.37559e-13
2.16653e-13
1.97127e-13
1.79618e-13
1.65149e-13
1.54989e-13
1.50069e-13
1.69509e-12
1.55871e-12
1.42655e-12
1.30001e-12
1.18211e-12
1.07452e-12
9.7762e-13
8.90852e-13
8.13121e-13
7.43126e-13
6.79483e-13
6.20846e-13
5.6604e-13
5.14153e-13
4.64684e-13
4.17763e-13
3.74446e-13
3.36958e-13
3.08691e-13
2.93416e-13
4.04859e-12
3.71078e-12
3.35888e-12
3.01833e-12
2.70432e-12
2.42284e-12
2.17484e-12
1.95797e-12
1.76832e-12
1.60154e-12
1.45322e-12
1.31913e-12
1.19552e-12
1.07925e-12
9.68078e-13
8.61278e-13
7.60349e-13
6.70119e-13
5.99312e-13
5.59224e-13
8.99375e-12
8.23942e-12
7.39311e-12
6.56398e-12
5.80445e-12
5.13381e-12
4.5535e-12
4.056e-12
3.62981e-12
3.26274e-12
2.94276e-12
2.65873e-12
2.40055e-12
2.15978e-12
1.92973e-12
1.70689e-12
1.49237e-12
1.29528e-12
1.13523e-12
1.04021e-12
1.76117e-11
1.61863e-11
1.44713e-11
1.27651e-11
1.12039e-11
9.83645e-12
8.66542e-12
7.6732e-12
6.83385e-12
6.11995e-12
5.50521e-12
4.96562e-12
4.47966e-12
4.0291e-12
3.59939e-12
3.18163e-12
2.77588e-12
2.39659e-12
2.07978e-12
1.88593e-12
3.15449e-11
2.91665e-11
2.60613e-11
2.29158e-11
2.00324e-11
1.7516e-11
1.53747e-11
1.35743e-11
1.20647e-11
1.07916e-11
9.7044e-12
8.75746e-12
7.91031e-12
7.12831e-12
6.38348e-12
5.65755e-12
4.94746e-12
4.27439e-12
3.69773e-12
3.33096e-12
5.24896e-11
4.89463e-11
4.38129e-11
3.85006e-11
3.36125e-11
2.93537e-11
2.57433e-11
2.27213e-11
2.01994e-11
1.80841e-11
1.62874e-11
1.47306e-11
1.33443e-11
1.20682e-11
1.08532e-11
9.66544e-12
8.49501e-12
7.37114e-12
6.38691e-12
5.73634e-12
8.19288e-11
7.72251e-11
6.93898e-11
6.1077e-11
5.33875e-11
4.66873e-11
4.10144e-11
3.62737e-11
3.23247e-11
2.90201e-11
2.62206e-11
2.38014e-11
2.16521e-11
1.96759e-11
1.77928e-11
1.59443e-11
1.41075e-11
1.23206e-11
1.07245e-11
9.63305e-12
1.20866e-10
1.15377e-10
1.04247e-10
9.2111e-11
8.0816e-11
7.09553e-11
6.25954e-11
5.5599e-11
4.97629e-11
4.48745e-11
4.07326e-11
3.71543e-11
3.3976e-11
3.10524e-11
2.82592e-11
2.55021e-11
2.27366e-11
2.00085e-11
1.75248e-11
1.57778e-11
1.69712e-10
1.64231e-10
1.49411e-10
1.32817e-10
1.17279e-10
1.03661e-10
9.20602e-11
8.23001e-11
7.41163e-11
6.72307e-11
6.13773e-11
5.6309e-11
5.17997e-11
4.76428e-11
4.36555e-11
3.9692e-11
3.56734e-11
3.16487e-11
2.79127e-11
2.52187e-11
2.28497e-10
2.23963e-10
2.05327e-10
1.84077e-10
1.64078e-10
1.46413e-10
1.31213e-10
1.18289e-10
1.07346e-10
9.80624e-11
9.01199e-11
8.32099e-11
7.70392e-11
7.13296e-11
6.58247e-11
6.03076e-11
5.46454e-11
4.88802e-11
4.34141e-11
3.93726e-11
2.97556e-10
2.94055e-10
2.7185e-10
2.46597e-10
2.22639e-10
2.01121e-10
1.82253e-10
1.65927e-10
1.51898e-10
1.39854e-10
1.29455e-10
1.20344e-10
1.12162e-10
1.04553e-10
9.71705e-11
8.9704e-11
8.19394e-11
7.3889e-11
6.60727e-11
6.0118e-11
3.78585e-10
3.73126e-10
3.48864e-10
3.21613e-10
2.95041e-10
2.70348e-10
2.48027e-10
2.2823e-10
2.10883e-10
1.95766e-10
1.82562e-10
1.70893e-10
1.60342e-10
1.50465e-10
1.40812e-10
1.30954e-10
1.20559e-10
1.09571e-10
9.86059e-11
8.98954e-11
2.52335e-100
2.49645e-100
2.45282e-100
2.40213e-100
2.3511e-100
2.30446e-100
2.26518e-100
2.23485e-100
2.21421e-100
2.20347e-100
2.20266e-100
2.21178e-100
2.23075e-100
2.25934e-100
2.29682e-100
2.34158e-100
2.39068e-100
2.43941e-100
2.48107e-100
2.507e-100
2.54259e-99
2.51157e-99
2.46446e-99
2.41106e-99
2.35815e-99
2.31037e-99
2.27055e-99
2.24014e-99
2.2197e-99
2.20936e-99
2.20909e-99
2.21886e-99
2.23865e-99
2.26831e-99
2.30725e-99
2.35399e-99
2.4057e-99
2.45776e-99
2.50337e-99
2.53365e-99
2.22582e-98
2.19447e-98
2.1498e-98
2.10067e-98
2.0529e-98
2.01035e-98
1.97531e-98
1.94886e-98