/*--------------------------------*- C++ -*----------------------------------*\
| =========                 |                                                 |
| \\      /  F ield         | OpenFOAM: The Open Source CFD Toolbox           |
|  \\    /   O peration     | Version:  2.1.0                                 |
|   \\  /    A nd           | Web:      www.OpenFOAM.org                      |
|    \\/     M anipulation  |                                                 |
\*---------------------------------------------------------------------------*/
FoamFile
{
    version     2.0;
    format      ascii;
    class       volScalarField;
    location    "0.09";
    object      k;
}
// * * * * * * * * * * * * * * * * * * * * * * * * * * * * * * * * * * * * * //

dimensions      [0 2 -2 0 0 0 0];

internalField   nonuniform List<scalar> 
6400
(
0.0274596
0.0273244
0.0272593
0.0271203
0.027016
0.0268646
0.0267206
0.0265488
0.0263697
0.02617
0.0259584
0.025729
0.0254847
0.0252232
0.0249474
0.0246571
0.0243545
0.02404
0.0237148
0.0233799
0.0230375
0.0226903
0.0223416
0.0219953
0.0216552
0.0213246
0.021007
0.0207054
0.0204223
0.0201618
0.019925
0.0197073
0.0195053
0.0193197
0.0191529
0.019008
0.0188889
0.0187933
0.0187488
0.0187464
0.0187748
0.018839
0.0189355
0.0190599
0.0192082
0.019376
0.0195588
0.0197519
0.0199503
0.0201495
0.0203449
0.0205323
0.0207086
0.0208715
0.0210197
0.0211527
0.0212693
0.0213686
0.021449
0.0215088
0.021533
0.0215358
0.0215236
0.0214874
0.021423
0.0213286
0.0212055
0.0210554
0.0208775
0.0206632
0.0204176
0.0201556
0.0198751
0.0195564
0.019198
0.0188131
0.0184083
0.0179845
0.0175432
0.0170865
0.0166154
0.0161284
0.015609
0.015052
0.014483
0.0138818
0.0132271
0.0125083
0.0116985
0.0107601
0.00964645
0.0082735
0.00657066
0.00452384
0.0023547
0.00161222
0.00204912
0.00427023
0.00633509
0.00699051
0.0108161
0.0105017
0.0103756
0.0101516
0.0100417
0.00985407
0.00976349
0.00962534
0.00956615
0.00952163
0.00951261
0.00951253
0.00952661
0.00957062
0.00965765
0.00979632
0.0099889
0.0102362
0.0105446
0.0109201
0.0113696
0.0118984
0.0125117
0.0132127
0.0139987
0.0148609
0.015788
0.0167669
0.0177804
0.0188062
0.019834
0.0208727
0.0219378
0.0230397
0.0241868
0.0253844
0.0266357
0.0279402
0.0292946
0.0306928
0.0321241
0.0335688
0.0350092
0.0364359
0.0378447
0.0392305
0.0405887
0.0419138
0.0432009
0.0444468
0.0456478
0.0468026
0.04791
0.0489695
0.0499794
0.0509362
0.0518345
0.0526749
0.0534598
0.0541869
0.054864
0.0554895
0.0560614
0.0565743
0.0570182
0.0573942
0.0577118
0.057977
0.0581863
0.058283
0.0583175
0.0583202
0.0582406
0.0580117
0.0576742
0.0572618
0.0567575
0.0561379
0.0553997
0.0545519
0.0536044
0.0525535
0.0513961
0.0500966
0.0485974
0.0468843
0.0448986
0.0426523
0.0400841
0.0371684
0.033891
0.0301967
0.0261521
0.0220228
0.0179167
0.0139989
0.0109244
0.00876948
0.00739857
0.00611104
0.00246386
0.00256558
0.0026146
0.00273063
0.00282482
0.00296281
0.00309512
0.00324956
0.00340432
0.00357097
0.00375653
0.00397211
0.00422776
0.00453393
0.00489911
0.00532785
0.0058244
0.00638656
0.00701141
0.00770549
0.00848271
0.00935559
0.0103302
0.0114027
0.0125603
0.0137905
0.0150823
0.0164263
0.0178134
0.0192372
0.0206972
0.0221878
0.023705
0.0252466
0.0268155
0.0284135
0.0300421
0.0316985
0.0333775
0.0350694
0.0367621
0.0384484
0.0401196
0.0417644
0.0433775
0.0449552
0.0464932
0.0479839
0.0494228
0.0508068
0.0521329
0.0533989
0.0546028
0.0557433
0.0568192
0.0578305
0.0587766
0.0596475
0.0604354
0.061146
0.0617787
0.0623443
0.0628389
0.0632448
0.0635431
0.063762
0.0638819
0.0639263
0.0639316
0.0638427
0.0635945
0.0632606
0.0628461
0.0622841
0.0615863
0.0607871
0.059856
0.0587598
0.057513
0.0561301
0.0545941
0.0528925
0.0510367
0.0490485
0.0469265
0.0446641
0.0422918
0.0397992
0.0371529
0.0343229
0.0313124
0.0280889
0.024603
0.0208869
0.0170435
0.0133337
0.0101931
0.00770285
0.00581642
0.00388629
0.0015308
0.00165821
0.00171624
0.00184743
0.00194311
0.00209699
0.00222586
0.00240468
0.00257287
0.00278788
0.00301845
0.00330391
0.00363751
0.00404277
0.00452272
0.00508931
0.00574696
0.00649926
0.00734683
0.00828142
0.00929118
0.0103643
0.0114895
0.0126644
0.0138908
0.0151704
0.016503
0.0178893
0.0193319
0.020828
0.0223621
0.0239225
0.0255099
0.0271255
0.0287679
0.030432
0.0321141
0.0338095
0.0355119
0.0372119
0.038899
0.0405641
0.0421996
0.0437978
0.0453531
0.046859
0.0483095
0.0496972
0.0510177
0.0522663
0.0534387
0.0545303
0.0555356
0.056449
0.0572671
0.0579914
0.0586235
0.0591524
0.0595591
0.0598511
0.060007
0.0600675
0.0600745
0.0599496
0.0596236
0.059222
0.0587379
0.0580918
0.0573268
0.0564709
0.0554801
0.0543697
0.0531734
0.051868
0.0504514
0.0489456
0.0473499
0.045662
0.0439016
0.0420743
0.0401654
0.0381735
0.0361143
0.0340083
0.0318561
0.02965
0.0273982
0.0251164
0.0228234
0.0205401
0.0182845
0.0160472
0.0138382
0.0116833
0.00960678
0.00766341
0.00587798
0.00437627
0.00331407
0.00281714
0.00141769
0.00153691
0.00159211
0.00171791
0.00180883
0.00195362
0.00208115
0.00225743
0.00243535
0.00266665
0.00292904
0.00325734
0.00364792
0.00411945
0.00467464
0.00532101
0.00605838
0.00688333
0.00778844
0.00876075
0.00978713
0.010855
0.011956
0.013087
0.0142485
0.0154429
0.0166719
0.0179355
0.019231
0.0205564
0.0219104
0.0232875
0.0246801
0.0260838
0.0274971
0.0289159
0.0303332
0.0317418
0.0331339
0.0345018
0.0358373
0.0371321
0.0383798
0.0395728
0.0407046
0.0417672
0.0427545
0.0436596
0.0444782
0.0452053
0.0458377
0.0463754
0.0468107
0.0471309
0.0473148
0.0473937
0.0474147
0.0473603
0.0471189
0.0467678
0.0463693
0.0458551
0.0452167
0.0445029
0.043705
0.0428131
0.0418435
0.0408003
0.0396836
0.0384948
0.0372416
0.0359309
0.0345596
0.0331245
0.0316386
0.0301111
0.0285619
0.0270113
0.0254481
0.0238431
0.0222
0.0205464
0.0189466
0.0174281
0.0159403
0.0144832
0.0130421
0.0117772
0.0105503
0.0093943
0.00835979
0.00740139
0.00644655
0.00554338
0.00468159
0.00400203
0.00339375
0.002967
0.00278291
0.00274446
0.00136561
0.00146877
0.0015174
0.00162941
0.00171082
0.00183767
0.00195425
0.00211289
0.00228137
0.00250293
0.0027643
0.00309472
0.00349273
0.00397269
0.00453435
0.00517814
0.0058967
0.00667627
0.00750056
0.00835001
0.0092104
0.010074
0.0109399
0.0118136
0.0127009
0.0136058
0.0145296
0.0154696
0.0164216
0.0173818
0.0183465
0.0193125
0.020277
0.0212374
0.02219
0.0231292
0.0240481
0.0249409
0.0258016
0.0266254
0.0274062
0.028138
0.0288159
0.0294339
0.0299879
0.0304744
0.0308901
0.0312274
0.0314853
0.0316455
0.0317143
0.0317346
0.0317019
0.0315183
0.0312472
0.0309438
0.0305374
0.0300362
0.0294824
0.0288572
0.0281575
0.0274054
0.0265932
0.0257264
0.024815
0.0238567
0.022858
0.0218275
0.0207692
0.0197203
0.018683
0.0176623
0.0166439
0.0156681
0.0147026
0.0137942
0.0129108
0.0120764
0.0112498
0.0104693
0.00972272
0.00903893
0.00839009
0.00780548
0.00722406
0.0066942
0.00621195
0.00575309
0.00533444
0.00494121
0.00457723
0.0042275
0.00390484
0.00359096
0.00332978
0.0030846
0.00292332
0.00284722
0.00283148
0.0028944
0.00131321
0.00139689
0.00143636
0.00152707
0.00159228
0.00169301
0.0017859
0.00191356
0.00205375
0.00224165
0.00246846
0.00275585
0.00310324
0.00352432
0.00402179
0.00459078
0.00521219
0.00586079
0.00651148
0.00714544
0.00775385
0.00834034
0.00891225
0.00947984
0.0100466
0.0106116
0.0111716
0.0117225
0.0122637
0.0127957
0.01332
0.0138357
0.0143401
0.014829
0.0152986
0.0157448
0.0161642
0.0165534
0.0169088
0.0172274
0.0175066
0.0177438
0.0179341
0.0180733
0.0181455
0.0181745
0.0181777
0.0181128
0.0179607
0.0177844
0.0175587
0.0172738
0.0169668
0.0166184
0.0162161
0.0158144
0.0153776
0.0149026
0.0144248
0.0139281
0.0134151
0.0129013
0.0123877
0.011869
0.0113585
0.0108576
0.010365
0.00988727
0.00942522
0.00898282
0.00855956
0.00815571
0.00776936
0.00741119
0.00706773
0.00675
0.00644771
0.00616361
0.0058919
0.00564294
0.00540576
0.00518825
0.00498114
0.00478878
0.00460046
0.00443029
0.00426362
0.00410331
0.00395545
0.00380724
0.00367045
0.00353954
0.00341984
0.00331021
0.00322672
0.00316994
0.00314678
0.0031626
0.00330692
0.00339105
0.00126451
0.00132811
0.00135757
0.00142412
0.00147008
0.00154176
0.00160535
0.00169287
0.0017876
0.0019145
0.00207491
0.00229062
0.00256896
0.00291766
0.00333038
0.00379268
0.00427972
0.00476514
0.00522683
0.00565332
0.00604453
0.00640915
0.00675606
0.00708942
0.00740675
0.00770117
0.00796904
0.00821076
0.0084325
0.00863986
0.00883589
0.00901868
0.00918524
0.00933287
0.00946255
0.00957499
0.00967015
0.0097475
0.00980735
0.00984509
0.00986162
0.00986656
0.00985752
0.00981273
0.00975373
0.00968478
0.00958959
0.00948011
0.00936008
0.00922385
0.00907677
0.0089239
0.00876713
0.00860285
0.00843364
0.00827125
0.00810418
0.00793735
0.00777904
0.00762301
0.00747063
0.00732612
0.00718755
0.0070529
0.00692706
0.00680805
0.00669538
0.00659197
0.00649549
0.00640636
0.00632433
0.00624911
0.00617958
0.0061174
0.00605908
0.00600652
0.00595706
0.00591089
0.00586716
0.00582612
0.0057855
0.00574673
0.00570712
0.00566682
0.00562428
0.00557818
0.00552636
0.00546787
0.00540228
0.00532719
0.00524545
0.00515676
0.00506637
0.00497934
0.00491729
0.00489103
0.00489039
0.00503538
0.00525065
0.00540166
0.00122784
0.00127473
0.00129585
0.0013415
0.00136938
0.00141206
0.001443
0.00148967
0.00154525
0.00163336
0.00175861
0.00193553
0.00216767
0.00245321
0.00278137
0.00313405
0.00349007
0.00382975
0.00414028
0.00441834
0.00466802
0.00489689
0.00510925
0.005304
0.00547605
0.00562043
0.00573775
0.00583302
0.00591398
0.00598523
0.00604767
0.00609939
0.00613991
0.00617024
0.00619286
0.00620854
0.0062176
0.00622226
0.00622444
0.00622507
0.00622467
0.00622187
0.00621754
0.00621242
0.00620769
0.00620389
0.00620105
0.00619999
0.00620049
0.0062042
0.00621078
0.00622189
0.00623675
0.00625418
0.0062775
0.00630592
0.00633824
0.00637626
0.00642085
0.00647064
0.00652578
0.00658707
0.00665355
0.00672509
0.0068024
0.00688494
0.00697243
0.00706562
0.00716435
0.00726887
0.00737978
0.00749702
0.00762088
0.00775174
0.00788953
0.00803466
0.00818783
0.00834878
0.00851803
0.00869552
0.00888045
0.00907332
0.00927265
0.00947838
0.00968923
0.0099048
0.0101233
0.0103434
0.0105603
0.0107735
0.0109802
0.0111806
0.0113751
0.0115683
0.0117677
0.0119978
0.0123155
0.0127554
0.0132827
0.0135852
0.00121111
0.00124946
0.00126626
0.00129851
0.00131334
0.00133774
0.00135193
0.00138111
0.00142204
0.00149568
0.00160632
0.00176481
0.0019718
0.00222196
0.00250332
0.00279746
0.00308648
0.00335509
0.00359546
0.00380776
0.00399764
0.00417103
0.00432978
0.00447064
0.00458835
0.00468026
0.00474943
0.0048026
0.00484674
0.00488525
0.00491785
0.00494337
0.00496252
0.00497758
0.00499118
0.00500428
0.00501721
0.005031
0.0050476
0.00506846
0.00509371
0.00512309
0.00515627
0.00519379
0.00523589
0.00528264
0.00533393
0.00538984
0.00545064
0.00551651
0.00558759
0.00566362
0.00574441
0.00582991
0.00592079
0.0060166
0.00611755
0.00622432
0.00633702
0.00645526
0.00657905
0.00670826
0.0068427
0.00698234
0.00712732
0.00727775
0.00743392
0.0075964
0.00776556
0.0079422
0.00812678
0.00831989
0.00852206
0.00873391
0.00895611
0.00918934
0.00943442
0.00969214
0.00996356
0.0102496
0.0105514
0.0108699
0.0112061
0.0115609
0.0119354
0.0123304
0.0127472
0.0131872
0.0136551
0.0141517
0.014683
0.0152514
0.0158636
0.0165234
0.0172378
0.0180077
0.0188184
0.0196118
0.0200039
0.020114
0.0012139
0.00125396
0.00127155
0.00130628
0.00132254
0.00134951
0.00136633
0.001397
0.00143907
0.00151278
0.00162327
0.0017813
0.00198838
0.0022391
0.00252205
0.00281838
0.00311008
0.00338125
0.00362383
0.00383764
0.00402875
0.00420332
0.00436374
0.00450682
0.00462725
0.00472183
0.00479323
0.00484775
0.00489245
0.00493087
0.00496286
0.00498726
0.00500472
0.00501765
0.00502888
0.00503989
0.00505097
0.00506291
0.00507705
0.00509467
0.00511625
0.00514225
0.0051723
0.00520601
0.00524373
0.00528588
0.00533225
0.00538289
0.00543815
0.00549804
0.00556285
0.00563247
0.00570655
0.00578534
0.00586891
0.005957
0.00605
0.00614822
0.00625192
0.00636059
0.00647436
0.00659301
0.00671662
0.00684475
0.00697795
0.00711585
0.00725894
0.00740756
0.00756181
0.00772245
0.00788966
0.00806385
0.00824546
0.00843482
0.00863246
0.00883884
0.00905446
0.00928
0.00951608
0.00976343
0.0100228
0.0102949
0.0105804
0.01088
0.0111945
0.0115249
0.0118727
0.0122395
0.0126278
0.0130396
0.0134771
0.0139434
0.0144512
0.0150032
0.0156167
0.0163023
0.0170761
0.0179123
0.0184926
0.0187233
0.00123601
0.00128654
0.00130918
0.0013581
0.00138813
0.00143597
0.00147197
0.00152274
0.00157961
0.00166757
0.00178986
0.00196343
0.00219215
0.00247556
0.00280353
0.00315803
0.00351707
0.00386073
0.00417495
0.00445573
0.00470755
0.0049389
0.00515518
0.0053559
0.00553571
0.00568908
0.00581533
0.00591811
0.00600452
0.00607946
0.00614409
0.00619679
0.00623669
0.00626526
0.0062854
0.00629981
0.00630777
0.00631118
0.00631207
0.00630955
0.00630038
0.00629116
0.00628272
0.00627005
0.0062546
0.00623991
0.0062238
0.0062073
0.00619261
0.00617716
0.00616355
0.00615326
0.00614387
0.00613783
0.00613474
0.00613368
0.00613658
0.00614183
0.00615237
0.00616677
0.00618571
0.00620792
0.00623513
0.0062642
0.00629766
0.00633365
0.00637237
0.00641376
0.00645615
0.00650048
0.0065456
0.0065914
0.00663743
0.006683
0.00672784
0.0067713
0.00681257
0.00685153
0.00688729
0.00691947
0.00694785
0.00697174
0.0069913
0.007006
0.00701623
0.00702146
0.0070238
0.00702468
0.00702554
0.00702954
0.00704011
0.00705972
0.00708796
0.00714159
0.00722346
0.00736212
0.00758599
0.00793926
0.00843216
0.00880536
0.00127554
0.00134322
0.00137431
0.00144383
0.00149083
0.00156595
0.001632
0.00172298
0.00182084
0.00194969
0.00210748
0.00231686
0.00258621
0.00292355
0.00332594
0.00378002
0.00426243
0.00474753
0.00521103
0.00564013
0.00603372
0.00640039
0.00675069
0.00709092
0.00741952
0.00772979
0.00801489
0.00827417
0.00851102
0.00873168
0.00893894
0.0091324
0.00930893
0.00946753
0.0096084
0.0097328
0.00984128
0.00993316
0.0100069
0.0100612
0.0100923
0.0101056
0.0101083
0.010087
0.010032
0.00996892
0.0098804
0.00977009
0.00964943
0.00950265
0.0093435
0.00917731
0.008992
0.00880523
0.00861357
0.00841253
0.00821326
0.008012
0.00780963
0.00761163
0.00741582
0.00722117
0.00703561
0.00685211
0.00667322
0.00650187
0.00633471
0.00617284
0.00602019
0.00587338
0.00573355
0.00560041
0.00547318
0.00534958
0.00523298
0.00511849
0.00500811
0.00490113
0.00479681
0.00469433
0.00459573
0.00449756
0.00440308
0.00431055
0.0042203
0.00413368
0.00404983
0.00397022
0.00389508
0.00382645
0.00376335
0.00370942
0.00366469
0.00363227
0.00361805
0.00361661
0.00368769
0.00381088
0.00401023
0.00410248
0.00132166
0.00140832
0.00144882
0.00154099
0.00160625
0.00170938
0.00180252
0.00192968
0.00206798
0.00225194
0.00247212
0.00275103
0.00308764
0.00349174
0.00396588
0.00450798
0.00510425
0.00573284
0.00636856
0.00699138
0.00759101
0.00816971
0.00873504
0.00929953
0.00986731
0.0104406
0.0110131
0.0115816
0.0121419
0.012695
0.0132409
0.0137804
0.0143107
0.014829
0.0153312
0.0158141
0.0162746
0.0167091
0.017114
0.0174852
0.0178196
0.018115
0.0183685
0.0185744
0.0187312
0.0188194
0.018857
0.0188651
0.0188146
0.0186632
0.0184825
0.0182578
0.0179597
0.0176441
0.0172811
0.0168632
0.0164376
0.0159794
0.015486
0.0149809
0.0144601
0.0139158
0.0133741
0.0128289
0.0122779
0.0117392
0.0112085
0.0106861
0.0101786
0.00968806
0.00921537
0.00877153
0.00834897
0.0079435
0.00756736
0.00720604
0.00686384
0.00654172
0.00623894
0.00594476
0.00567892
0.00541476
0.00517096
0.00493556
0.00471249
0.00450042
0.00429927
0.00410755
0.00391933
0.00374409
0.0035783
0.00342579
0.00328552
0.00315929
0.00304076
0.00295898
0.00292042
0.00291205
0.00302317
0.0030972
0.00136746
0.00147152
0.00152021
0.00163164
0.00171226
0.00183964
0.00195427
0.00210958
0.00227315
0.00248684
0.00273575
0.00304969
0.00342667
0.00388022
0.00441071
0.0050199
0.0057013
0.00644418
0.00723289
0.00805012
0.00888105
0.00971803
0.0105589
0.0114106
0.0122783
0.013169
0.0140835
0.0150206
0.0159746
0.0169423
0.0179181
0.0188996
0.0198833
0.0208656
0.0218433
0.0228137
0.0237715
0.0247105
0.0256249
0.0265093
0.027359
0.0281676
0.0289301
0.0296404
0.0302939
0.0308845
0.0314089
0.0318639
0.0322418
0.0325382
0.0327544
0.032857
0.0328955
0.0328958
0.0327773
0.0325221
0.0322316
0.031863
0.0313762
0.0308318
0.0302168
0.0295167
0.0287614
0.0279432
0.0270556
0.0261273
0.0251511
0.0241227
0.0230633
0.0219653
0.0208596
0.0197824
0.018735
0.0176975
0.0167112
0.0157423
0.0147995
0.0138775
0.0130084
0.0121389
0.0113431
0.0105623
0.00982841
0.00911507
0.00843823
0.00779917
0.00720519
0.00666395
0.00612477
0.00559607
0.00509362
0.00463146
0.00421282
0.0038252
0.00343816
0.00310937
0.00288396
0.00277549
0.00274547
0.00278242
0.00141072
0.00152862
0.00158304
0.00170674
0.00179599
0.0019386
0.00206257
0.00223379
0.00240504
0.00262613
0.00287447
0.00318347
0.00354939
0.00398956
0.00450777
0.00511094
0.005801
0.00657492
0.00742665
0.00834569
0.00931963
0.0103372
0.0113898
0.0124744
0.0135915
0.0147443
0.0159356
0.0171666
0.0184357
0.0197397
0.0210736
0.0224352
0.0238199
0.02522
0.026632
0.0280545
0.0294834
0.0309117
0.0323321
0.0337376
0.0351212
0.0364745
0.0377909
0.0390632
0.0402851
0.0414494
0.0425485
0.0435762
0.0445256
0.0453918
0.0461702
0.0468557
0.047449
0.0479462
0.0483324
0.0486028
0.0487385
0.0487909
0.0487948
0.0486724
0.0483733
0.0480107
0.0475795
0.0470124
0.0463464
0.0456123
0.0447755
0.0438522
0.0428729
0.0418174
0.0406804
0.0394816
0.0382143
0.03688
0.0355039
0.0340967
0.0326441
0.0311491
0.0296121
0.0280241
0.0264045
0.0247749
0.0231336
0.0214747
0.0197669
0.0180197
0.0163807
0.0148642
0.0134708
0.0119954
0.0104808
0.00895025
0.00773249
0.00669774
0.00557768
0.00443208
0.00366336
0.00307122
0.00278983
0.00269346
0.0015132
0.00163796
0.00169474
0.00182278
0.00191563
0.00206515
0.00219021
0.00236322
0.00252527
0.00273092
0.00294922
0.00321809
0.0035299
0.00390687
0.00435347
0.0048788
0.00549025
0.00619025
0.00698084
0.00785613
0.00880511
0.00981743
0.0108829
0.0119956
0.0131579
0.0143726
0.0156411
0.0169631
0.0183397
0.0197719
0.0212595
0.0227872
0.0243411
0.0259216
0.0275329
0.0291724
0.0308348
0.0325155
0.0342099
0.035911
0.0376101
0.039297
0.0409637
0.0426034
0.0442094
0.0457764
0.0472981
0.0487687
0.0501813
0.0515316
0.0528155
0.0540282
0.055166
0.0562246
0.0571982
0.0580833
0.0588787
0.0595885
0.0602093
0.0607222
0.06112
0.0614216
0.0615938
0.0616635
0.0616784
0.0615911
0.0613003
0.0609213
0.0604775
0.0598778
0.0591529
0.0583541
0.0574313
0.0563725
0.0552326
0.0540033
0.0526556
0.0512269
0.0497214
0.0481104
0.0464025
0.0446093
0.042727
0.0407528
0.0386768
0.0364898
0.0341638
0.0317068
0.0291585
0.0265023
0.0236979
0.0207825
0.0178318
0.0149046
0.0120623
0.00940408
0.00708605
0.00510523
0.00366463
0.00298818
0.00241367
0.00250952
0.00255667
0.00266716
0.00275885
0.00288827
0.00301927
0.0031673
0.00331962
0.00348083
0.00365689
0.00386064
0.00410066
0.00438632
0.00472809
0.00512665
0.00558894
0.00611181
0.00669184
0.00733342
0.00804909
0.0088524
0.00975119
0.0107456
0.0118266
0.0129817
0.0142015
0.0154781
0.0168048
0.0181754
0.0195829
0.0210223
0.0224917
0.0239893
0.0255152
0.0270724
0.0286622
0.030284
0.0319342
0.0336062
0.0352907
0.0369749
0.0386512
0.0403136
0.041952
0.0435618
0.0451397
0.0466811
0.0481789
0.0496291
0.0510289
0.0523751
0.0536651
0.0548972
0.0560692
0.0571807
0.0582308
0.0592208
0.0601501
0.0610168
0.0618056
0.0625305
0.0631879
0.0637852
0.0643229
0.0647871
0.0651528
0.0654426
0.0656826
0.0658123
0.0658678
0.0658817
0.0658125
0.0655732
0.0652571
0.064853
0.0642708
0.0635503
0.0627104
0.0616847
0.0604572
0.0590456
0.0574347
0.0555996
0.0535318
0.0512437
0.0487255
0.0459623
0.0429586
0.0397112
0.0361885
0.032329
0.028139
0.0236631
0.0191309
0.0149977
0.011429
0.00874369
0.00662808
0.00437974
0.0106741
0.0103507
0.0102216
0.00999288
0.00988037
0.00968661
0.00959294
0.00944791
0.00938419
0.00932703
0.00931278
0.00931038
0.00931812
0.00935062
0.00942188
0.00954134
0.00971276
0.00993572
0.010215
0.0105558
0.0109646
0.011448
0.01201
0.0126537
0.0133788
0.0141793
0.0150461
0.015968
0.0169307
0.0179142
0.0189001
0.0198894
0.0208981
0.0219404
0.0230259
0.0241624
0.0253549
0.0266035
0.0279053
0.0292554
0.0306464
0.0320665
0.0334979
0.0349241
0.0363362
0.037732
0.0391075
0.0404575
0.0417768
0.0430616
0.0443084
0.0455149
0.0466787
0.0477991
0.0488752
0.0499066
0.0508912
0.0518264
0.0527088
0.0535341
0.054312
0.055041
0.055729
0.0563761
0.0569799
0.0575379
0.0580407
0.0584863
0.0588859
0.0592349
0.059531
0.0597795
0.059924
0.0599851
0.0600029
0.0599513
0.0597148
0.0593578
0.0589059
0.0583014
0.0575189
0.0565578
0.0554118
0.0540773
0.0525047
0.0507016
0.0486267
0.0462455
0.043429
0.0401039
0.0362406
0.0319993
0.0275569
0.0230122
0.0186084
0.0146336
0.011674
0.00948833
0.00807376
0.0067275
0.0274622
0.0273235
0.0272566
0.0271135
0.0270064
0.0268525
0.0267041
0.0265297
0.0263463
0.0261438
0.0259278
0.0256945
0.025446
0.0251804
0.0248999
0.0246048
0.0242969
0.0239773
0.023647
0.0233069
0.0229587
0.0226048
0.0222484
0.0218929
0.021542
0.0211992
0.0208677
0.0205506
0.0202506
0.0199707
0.0197144
0.0194797
0.0192612
0.019058
0.0188721
0.018706
0.0185631
0.0184465
0.0183566
0.0183238
0.0183273
0.0183639
0.0184366
0.0185416
0.0186742
0.0188307
0.0190075
0.0192002
0.0194044
0.0196157
0.0198299
0.0200429
0.0202509
0.0204509
0.0206404
0.0208178
0.0209821
0.0211321
0.0212666
0.0213837
0.0214825
0.0215605
0.021624
0.021667
0.0216787
0.0216756
0.0216536
0.0216066
0.0215341
0.0214372
0.0213157
0.0211673
0.0209829
0.020763
0.0205259
0.0202684
0.0199595
0.0195996
0.019207
0.0187773
0.0183033
0.0177836
0.0172168
0.0166005
0.0159245
0.0151827
0.0143519
0.0133861
0.0122393
0.0108483
0.00911759
0.00709654
0.00517545
0.00346628
0.00229214
0.00170968
0.00201605
0.00433468
0.00679002
0.0076026
0.00648306
0.00168597
0.00152711
0.00145383
0.00136657
0.0013187
0.00129527
0.0012906
0.00129132
0.00130242
0.00132676
0.00133877
0.00133907
0.00133434
0.001345
0.00144162
0.00183604
0.00282164
0.00465679
0.00543868
0.00446011
0.00174115
0.00158769
0.00150561
0.00142045
0.00138658
0.00137281
0.00136609
0.00136379
0.00137039
0.00139269
0.0013981
0.00139836
0.00140006
0.00142765
0.00158811
0.00210974
0.00319241
0.00462395
0.0049327
0.00303086
0.0018354
0.00171051
0.00158807
0.00151
0.00147376
0.00145622
0.0014504
0.00145259
0.001477
0.00148515
0.00147818
0.00147296
0.00147607
0.00155217
0.00183479
0.00246224
0.00354614
0.00449624
0.004376
0.0025772
0.00193883
0.00181842
0.00167984
0.0016256
0.00159824
0.00158832
0.00158667
0.00159916
0.00160321
0.00157604
0.00156861
0.00157543
0.00162278
0.00180578
0.00220161
0.00289774
0.00389024
0.00426129
0.0037736
0.00251207
0.00207705
0.00197554
0.00186573
0.00182876
0.00180297
0.00179542
0.00179272
0.00179298
0.0017695
0.00174409
0.00175031
0.00179122
0.00191971
0.00221265
0.0026825
0.00343371
0.00388434
0.00394884
0.00313475
0.0025855
0.00232743
0.00224836
0.00217155
0.00214936
0.0021392
0.00214744
0.00215631
0.00216033
0.00214466
0.00213871
0.00218074
0.00230175
0.0025841
0.00288766
0.00337554
0.00371336
0.00381754
0.0035
0.00248729
0.00302868
0.00294495
0.00291091
0.00289565
0.00293471
0.00297765
0.0030527
0.00310375
0.00317099
0.00320101
0.00316612
0.00319729
0.00336138
0.00349214
0.0036822
0.00378348
0.00380758
0.00361999
0.00288078
0.00185435
0.00521892
0.00536027
0.00551813
0.00570361
0.0059469
0.00602441
0.00599931
0.00555037
0.00536148
0.00500308
0.00484059
0.00465644
0.00456931
0.00440567
0.00425594
0.00404364
0.00370891
0.00318965
0.00212105
0.00127637
0.013132
0.012835
0.0124193
0.0114637
0.0104102
0.00957304
0.00865731
0.00802253
0.00733587
0.00684153
0.00634111
0.00590387
0.00549001
0.00492496
0.00453097
0.00392905
0.00329945
0.00234282
0.00126541
0.000745779
0.0173345
0.0159483
0.0146378
0.0130368
0.0119892
0.0106967
0.00990827
0.00887806
0.00827382
0.0074151
0.00691942
0.00611828
0.00562313
0.00475108
0.0041202
0.00306753
0.00225312
0.00109967
0.000569869
0.00031662
0.0165661
0.0151642
0.0142348
0.0125864
0.0117796
0.0104585
0.00982612
0.00882123
0.00833977
0.00754731
0.00716028
0.00645082
0.00606805
0.00534946
0.00481724
0.0040369
0.00299575
0.00169892
0.000822275
0.000415858
0.00883065
0.008968
0.00902168
0.00891371
0.00859048
0.00797971
0.00753182
0.00692898
0.00660183
0.0062025
0.0059742
0.00572493
0.00549484
0.00529838
0.00485263
0.00451164
0.00394456
0.0031179
0.00170472
0.000920893
0.00379766
0.00379055
0.00382325
0.00387803
0.0039892
0.00409823
0.0042428
0.00430632
0.00426958
0.0041873
0.00416361
0.0041671
0.0042931
0.00441388
0.00447266
0.00447412
0.00419538
0.00382651
0.00266591
0.00151062
0.00269555
0.00258463
0.00252939
0.00248955
0.00248486
0.00249267
0.00252616
0.00255707
0.00259422
0.00264497
0.00268959
0.0028429
0.00299518
0.00336381
0.00372995
0.00409461
0.00424622
0.00419236
0.00348666
0.00217269
0.00245031
0.0021874
0.00210331
0.00201508
0.00198729
0.00197378
0.00197294
0.00197469
0.00197555
0.00195973
0.00195541
0.00200148
0.00212622
0.00241435
0.00285256
0.00349244
0.00412762
0.00435552
0.00411423
0.00287943
0.0024175
0.00200444
0.001902
0.0017857
0.00174634
0.00172241
0.00171772
0.00171641
0.00171842
0.0016894
0.00167234
0.00167698
0.0017173
0.00185195
0.00217873
0.00274864
0.00367249
0.00441585
0.00454651
0.00359625
0.00252084
0.00188187
0.00176767
0.00163236
0.00157283
0.00153761
0.00152502
0.00152471
0.00154973
0.00155976
0.00154225
0.00153694
0.0015393
0.00159004
0.00177828
0.00224063
0.00308868
0.00436216
0.00487411
0.00429601
0.00316085
0.00179128
0.00166543
0.00156094
0.00148274
0.00144831
0.00142255
0.00141311
0.00141113
0.00144161
0.00145365
0.001455
0.00145355
0.00146103
0.00154896
0.00185536
0.00258614
0.00392963
0.0051011
0.00494975
0.00488358
0.001717
0.0015581
0.00148051
0.00139835
0.00135977
0.00134135
0.00133613
0.00133567
0.00134181
0.0013686
0.00137834
0.00138036
0.00138386
0.00141573
0.00160319
0.0021975
0.00350173
0.00522183
0.00555095
0.00712255
0.00167129
0.00149963
0.00142955
0.00135913
0.00131754
0.00128225
0.00126971
0.0012667
0.0012798
0.001299
0.00132227
0.00132665
0.00132634
0.00134342
0.00145067
0.00188558
0.00308756
0.00524945
0.00609639
0.00396957
0.00375015
0.00374679
0.0037468
0.00374652
0.00374628
0.00374612
0.00374604
0.003746
0.00374598
0.00374598
0.003746
0.00374604
0.00374612
0.00374628
0.00374652
0.0037468
0.00374679
0.00375015
0.00396956
0.00441769
0.00375351
0.00374146
0.00374099
0.00374058
0.00374013
0.00373988
0.00373975
0.00373969
0.00373966
0.00373966
0.00373969
0.00373975
0.00373988
0.00374013
0.00374058
0.00374099
0.00374146
0.00375351
0.0044177
0.00486304
0.00376066
0.00373279
0.00373258
0.00373281
0.00373272
0.00373255
0.00373242
0.00373234
0.00373231
0.00373231
0.00373234
0.00373242
0.00373255
0.00373272
0.00373281
0.00373258
0.00373279
0.00376066
0.00486305
0.00529521
0.00377189
0.00372429
0.00372394
0.00372491
0.00372524
0.00372525
0.00372519
0.00372514
0.00372512
0.00372512
0.00372514
0.00372519
0.00372525
0.00372524
0.00372491
0.00372394
0.00372429
0.0037719
0.00529521
0.00573399
0.00378563
0.0037157
0.00371494
0.00371672
0.00371761
0.00371791
0.00371796
0.00371796
0.00371795
0.00371795
0.00371796
0.00371796
0.00371791
0.00371761
0.00371672
0.00371494
0.00371571
0.00378563
0.00573399
0.00617819
0.00379778
0.00370571
0.00370508
0.003708
0.00370969
0.00371043
0.0037107
0.00371078
0.0037108
0.0037108
0.00371078
0.0037107
0.00371043
0.00370969
0.003708
0.00370508
0.00370571
0.00379777
0.00617819
0.00659956
0.00380749
0.00369445
0.0036945
0.00369882
0.00370149
0.00370281
0.00370338
0.0037036
0.00370367
0.00370367
0.0037036
0.00370338
0.00370281
0.00370149
0.00369882
0.0036945
0.00369445
0.0038075
0.00659957
0.00699395
0.00381707
0.00368291
0.00368368
0.00368942
0.00369311
0.00369508
0.00369602
0.00369642
0.00369656
0.00369656
0.00369642
0.00369602
0.00369508
0.00369311
0.00368942
0.00368368
0.00368291
0.00381707
0.00699396
0.00738401
0.00382467
0.00366991
0.00367209
0.00367958
0.00368446
0.00368718
0.00368857
0.0036892
0.00368944
0.00368944
0.0036892
0.00368857
0.00368718
0.00368446
0.00367958
0.00367209
0.00366991
0.00382467
0.007384
0.00777147
0.00382726
0.00365407
0.00365908
0.00366898
0.00367535
0.003679
0.00368095
0.0036819
0.00368227
0.00368227
0.0036819
0.00368095
0.003679
0.00367535
0.00366898
0.00365909
0.00365407
0.00382726
0.00777147
0.00813073
0.0038289
0.00363687
0.00364517
0.00365778
0.00366584
0.00367056
0.00367317
0.00367449
0.00367504
0.00367504
0.00367449
0.00367317
0.00367056
0.00366585
0.00365778
0.00364517
0.00363687
0.0038289
0.00813075
0.00845013
0.00383038
0.00361939
0.00363093
0.00364629
0.0036561
0.00366194
0.00366526
0.00366701
0.00366774
0.00366774
0.00366701
0.00366526
0.00366194
0.0036561
0.00364629
0.00363093
0.00361939
0.00383037
0.00845012
0.00874577
0.00383026
0.00360129
0.00361631
0.00363453
0.00364615
0.00365316
0.00365723
0.00365942
0.00366037
0.00366037
0.00365942
0.00365723
0.00365316
0.00364615
0.00363453
0.0036163
0.00360128
0.00383024
0.00874578
0.00903122
0.00382945
0.00358174
0.0036008
0.00362224
0.00363586
0.00364413
0.00364901
0.0036517
0.00365288
0.00365288
0.0036517
0.00364902
0.00364413
0.00363586
0.00362225
0.00360081
0.00358174
0.00382942
0.00903125
0.00929648
0.0038273
0.00356013
0.00358401
0.00360918
0.00362507
0.00363476
0.00364055
0.00364378
0.00364522
0.00364522
0.00364379
0.00364056
0.00363477
0.00362507
0.00360918
0.00358402
0.00356014
0.00382726
0.00929649
0.00952491
0.00382242
0.00353703
0.0035662
0.00359544
0.0036138
0.00362505
0.00363183
0.00363565
0.00363737
0.00363737
0.00363565
0.00363183
0.00362505
0.0036138
0.00359543
0.0035662
0.00353701
0.00382236
0.00952496
0.00971732
0.00381785
0.003514
0.00354818
0.00358143
0.00360228
0.0036151
0.00362287
0.0036273
0.00362931
0.00362931
0.0036273
0.00362288
0.0036151
0.00360228
0.00358143
0.00354817
0.00351396
0.00381774
0.00971743
0.00988901
0.00381519
0.00349172
0.00353032
0.0035674
0.00359068
0.00360504
0.00361381
0.00361884
0.00362113
0.00362113
0.00361884
0.00361382
0.00360505
0.00359069
0.00356741
0.00353033
0.0034917
0.00381503
0.00988915
0.0100488
0.00381343
0.00346939
0.00351229
0.00355325
0.00357898
0.0035949
0.00360466
0.00361029
0.00361286
0.00361286
0.00361028
0.00360466
0.00359489
0.00357897
0.00355323
0.00351227