/*--------------------------------*- C++ -*----------------------------------*\
| =========                 |                                                 |
| \\      /  F ield         | OpenFOAM: The Open Source CFD Toolbox           |
|  \\    /   O peration     | Version:  2.1.0                                 |
|   \\  /    A nd           | Web:      www.OpenFOAM.org                      |
|    \\/     M anipulation  |                                                 |
\*---------------------------------------------------------------------------*/
FoamFile
{
    version     2.0;
    format      ascii;
    class       volScalarField;
    location    "0.09";
    object      nut;
}
// * * * * * * * * * * * * * * * * * * * * * * * * * * * * * * * * * * * * * //

dimensions      [0 2 -1 0 0 0 0];

internalField   nonuniform List<scalar> 
6400
(
5.31639e-06
5.29931e-06
5.29832e-06
5.28625e-06
5.28339e-06
5.27336e-06
5.26671e-06
5.25631e-06
5.24616e-06
5.23348e-06
5.21995e-06
5.20422e-06
5.18678e-06
5.16705e-06
5.14549e-06
5.12194e-06
5.09673e-06
5.06982e-06
5.04128e-06
5.01122e-06
4.97991e-06
4.9478e-06
4.91546e-06
4.8836e-06
4.85296e-06
4.82428e-06
4.79828e-06
4.77564e-06
4.75704e-06
4.74346e-06
4.7353e-06
4.73159e-06
4.73155e-06
4.73547e-06
4.74397e-06
4.75794e-06
4.77844e-06
4.80502e-06
4.84494e-06
4.89625e-06
4.95623e-06
5.02644e-06
5.10629e-06
5.19489e-06
5.29134e-06
5.39477e-06
5.50413e-06
5.61829e-06
5.73608e-06
5.85635e-06
5.97789e-06
6.09967e-06
6.22084e-06
6.34083e-06
6.45938e-06
6.57633e-06
6.69153e-06
6.80473e-06
6.91548e-06
7.02335e-06
7.12343e-06
7.2203e-06
7.31621e-06
7.40823e-06
7.4948e-06
7.57525e-06
7.64983e-06
7.7191e-06
7.78253e-06
7.83675e-06
7.88336e-06
7.92798e-06
7.96971e-06
8.00053e-06
8.01925e-06
8.03096e-06
8.03831e-06
8.04172e-06
8.04207e-06
8.0408e-06
8.03923e-06
8.03774e-06
8.02949e-06
8.0131e-06
8.00438e-06
7.99555e-06
7.97692e-06
7.94289e-06
7.87395e-06
7.734e-06
7.46201e-06
6.93189e-06
5.96637e-06
4.39392e-06
2.35615e-06
1.57268e-06
1.79578e-06
2.96817e-06
2.90863e-06
3.11551e-06
1.2139e-05
1.18279e-05
1.17707e-05
1.16205e-05
1.16035e-05
1.14982e-05
1.15036e-05
1.14515e-05
1.14896e-05
1.15434e-05
1.16377e-05
1.17402e-05
1.18568e-05
1.20066e-05
1.22062e-05
1.24666e-05
1.27912e-05
1.3181e-05
1.36443e-05
1.41891e-05
1.48244e-05
1.55574e-05
1.63944e-05
1.73394e-05
1.83878e-05
1.95266e-05
2.07389e-05
2.20048e-05
2.32988e-05
2.45889e-05
2.58588e-05
2.71183e-05
2.83863e-05
2.96756e-05
3.09965e-05
3.23564e-05
3.37597e-05
3.52063e-05
3.66925e-05
3.82114e-05
3.97495e-05
4.12823e-05
4.27879e-05
4.42544e-05
4.56762e-05
4.70468e-05
4.836e-05
4.96082e-05
5.07852e-05
5.18858e-05
5.29048e-05
5.384e-05
5.46889e-05
5.54501e-05
5.61205e-05
5.66954e-05
5.71686e-05
5.75405e-05
5.78135e-05
5.79855e-05
5.80649e-05
5.80494e-05
5.79375e-05
5.77238e-05
5.73995e-05
5.69686e-05
5.64425e-05
5.5829e-05
5.51277e-05
5.42885e-05
5.33642e-05
5.23872e-05
5.13156e-05
5.00965e-05
4.87745e-05
4.73863e-05
4.59247e-05
4.4379e-05
4.27555e-05
4.10697e-05
3.93366e-05
3.75606e-05
3.5746e-05
3.38747e-05
3.19174e-05
2.98775e-05
2.77336e-05
2.55123e-05
2.32e-05
2.08115e-05
1.8376e-05
1.59084e-05
1.34897e-05
1.12599e-05
9.21462e-06
7.33086e-06
5.82686e-06
4.74411e-06
4.13341e-06
4.94707e-06
7.98596e-06
8.49525e-06
8.72939e-06
9.252e-06
9.64374e-06
1.02258e-05
1.07307e-05
1.12288e-05
1.15082e-05
1.17922e-05
1.20981e-05
1.24607e-05
1.29037e-05
1.3451e-05
1.41169e-05
1.49032e-05
1.58098e-05
1.68195e-05
1.79149e-05
1.91046e-05
2.04146e-05
2.1865e-05
2.34597e-05
2.51804e-05
2.6992e-05
2.88634e-05
3.07698e-05
3.26916e-05
3.46121e-05
3.65212e-05
3.84202e-05
4.03008e-05
4.21578e-05
4.39894e-05
4.5803e-05
4.76032e-05
4.93944e-05
5.11734e-05
5.29331e-05
5.466e-05
5.63372e-05
5.79558e-05
5.9505e-05
6.09702e-05
6.23453e-05
6.36262e-05
6.48083e-05
6.58819e-05
6.68418e-05
6.76847e-05
6.84072e-05
6.9008e-05
6.94857e-05
6.98397e-05
7.00694e-05
7.01762e-05
7.01612e-05
7.00146e-05
6.97302e-05
6.93194e-05
6.87857e-05
6.81453e-05
6.73986e-05
6.65314e-05
6.55294e-05
6.44306e-05
6.32225e-05
6.19349e-05
6.06091e-05
5.91986e-05
5.76514e-05
5.60449e-05
5.43922e-05
5.26445e-05
5.08223e-05
4.8964e-05
4.70533e-05
4.50744e-05
4.30496e-05
4.09994e-05
3.89211e-05
3.6816e-05
3.47027e-05
3.26057e-05
3.05331e-05
2.84909e-05
2.65072e-05
2.45848e-05
2.27148e-05
2.08828e-05
1.90944e-05
1.7371e-05
1.56075e-05
1.38208e-05
1.19644e-05
1.01122e-05
8.34679e-06
6.79092e-06
5.98482e-06
7.04666e-06
1.26511e-05
1.31125e-05
1.29378e-05
1.31411e-05
1.29702e-05
1.31253e-05
1.30541e-05
1.32285e-05
1.32877e-05
1.35364e-05
1.37963e-05
1.42387e-05
1.4804e-05
1.55622e-05
1.64934e-05
1.76124e-05
1.8907e-05
2.03643e-05
2.19649e-05
2.36665e-05
2.54236e-05
2.71981e-05
2.89601e-05
3.07059e-05
3.24432e-05
3.41791e-05
3.59155e-05
3.76567e-05
3.94101e-05
4.11722e-05
4.29139e-05
4.46167e-05
4.62856e-05
4.79252e-05
4.95348e-05
5.11075e-05
5.26388e-05
5.41231e-05
5.55527e-05
5.69163e-05
5.82018e-05
5.94001e-05
6.05051e-05
6.15111e-05
6.24149e-05
6.32123e-05
6.38999e-05
6.44724e-05
6.49287e-05
6.5267e-05
6.5486e-05
6.55851e-05
6.55628e-05
6.54172e-05
6.51502e-05
6.47699e-05
6.42839e-05
6.36862e-05
6.29621e-05
6.21283e-05
6.11719e-05
6.01413e-05
5.90839e-05
5.79297e-05
5.66218e-05
5.52873e-05
5.3926e-05
5.24728e-05
5.09726e-05
4.9455e-05
4.78888e-05
4.62919e-05
4.46977e-05
4.30934e-05
4.14817e-05
3.98838e-05
3.83011e-05
3.67339e-05
3.51963e-05
3.36899e-05
3.22042e-05
3.07307e-05
2.92702e-05
2.78445e-05
2.64285e-05
2.49999e-05
2.35737e-05
2.21241e-05
2.06642e-05
1.91809e-05
1.76851e-05
1.61534e-05
1.45954e-05
1.29949e-05
1.13592e-05
9.74927e-06
8.35356e-06
7.52514e-06
6.71866e-06
6.24562e-06
1.61244e-05
1.62629e-05
1.58037e-05
1.57079e-05
1.51504e-05
1.49903e-05
1.46562e-05
1.46344e-05
1.45839e-05
1.48072e-05
1.51417e-05
1.57344e-05
1.65122e-05
1.75148e-05
1.87076e-05
2.00782e-05
2.16e-05
2.32386e-05
2.49545e-05
2.66985e-05
2.84288e-05
3.01116e-05
3.17306e-05
3.32848e-05
3.4784e-05
3.62405e-05
3.76645e-05
3.9062e-05
4.04319e-05
4.17751e-05
4.3094e-05
4.43823e-05
4.56298e-05
4.6833e-05
4.7993e-05
4.91068e-05
5.01665e-05
5.11646e-05
5.20937e-05
5.29477e-05
5.37202e-05
5.4406e-05
5.50029e-05
5.55075e-05
5.59181e-05
5.62315e-05
5.64471e-05
5.65634e-05
5.65826e-05
5.65047e-05
5.63314e-05
5.60694e-05
5.57155e-05
5.52604e-05
5.46892e-05
5.40439e-05
5.33772e-05
5.26743e-05
5.18293e-05
5.09257e-05
5.00271e-05
4.90712e-05
4.80546e-05
4.70253e-05
4.59769e-05
4.49024e-05
4.38175e-05
4.27239e-05
4.16204e-05
4.05073e-05
3.93893e-05
3.82611e-05
3.71265e-05
3.5993e-05
3.48284e-05
3.36605e-05
3.24837e-05
3.1302e-05
3.01136e-05
2.88788e-05
2.76161e-05
2.63177e-05
2.50266e-05
2.37408e-05
2.22532e-05
2.06577e-05
1.90534e-05
1.76576e-05
1.62731e-05
1.49411e-05
1.37461e-05
1.26216e-05
1.14465e-05
1.03018e-05
9.17182e-06
8.31467e-06
7.51682e-06
6.98008e-06
6.80864e-06
6.84408e-06
1.81761e-05
1.78879e-05
1.73048e-05
1.70328e-05
1.63119e-05
1.59761e-05
1.55339e-05
1.54266e-05
1.53825e-05
1.57039e-05
1.62433e-05
1.70781e-05
1.81062e-05
1.93378e-05
2.07217e-05
2.22209e-05
2.38058e-05
2.54235e-05
2.70201e-05
2.85408e-05
2.9954e-05
3.12519e-05
3.24469e-05
3.35667e-05
3.46359e-05
3.5672e-05
3.66841e-05
3.7671e-05
3.86288e-05
3.95535e-05
4.04424e-05
4.12942e-05
4.21084e-05
4.28867e-05
4.36264e-05
4.43224e-05
4.4967e-05
4.55568e-05
4.60871e-05
4.6557e-05
4.69622e-05
4.7301e-05
4.75721e-05
4.77731e-05
4.79045e-05
4.79678e-05
4.7964e-05
4.78892e-05
4.77474e-05
4.75214e-05
4.72231e-05
4.69052e-05
4.65615e-05
4.6092e-05
4.55688e-05
4.5044e-05
4.44483e-05
4.37965e-05
4.31241e-05
4.24136e-05
4.16607e-05
4.08728e-05
4.00521e-05
3.92161e-05
3.83468e-05
3.74257e-05
3.64986e-05
3.55254e-05
3.4261e-05
3.27586e-05
3.13002e-05
2.98714e-05
2.84556e-05
2.71134e-05
2.57784e-05
2.45335e-05
2.33128e-05
2.21576e-05
2.09947e-05
1.98923e-05
1.88216e-05
1.78373e-05
1.68767e-05
1.60077e-05
1.51073e-05
1.42766e-05
1.3509e-05
1.27511e-05
1.2053e-05
1.13804e-05
1.07452e-05
1.01202e-05
9.53915e-06
8.9591e-06
8.49074e-06
8.03678e-06
7.75473e-06
7.61937e-06
7.59814e-06
7.77494e-06
2.15275e-05
2.02933e-05
1.95445e-05
1.899e-05
1.80763e-05
1.74866e-05
1.68673e-05
1.66959e-05
1.67483e-05
1.72979e-05
1.81221e-05
1.90534e-05
1.99363e-05
2.13111e-05
2.30254e-05
2.45165e-05
2.60544e-05
2.7562e-05
2.89603e-05
3.01997e-05
3.12668e-05
3.21906e-05
3.30083e-05
3.37618e-05
3.44722e-05
3.51467e-05
3.57884e-05
3.63937e-05
3.69663e-05
3.75092e-05
3.80282e-05
3.85249e-05
3.89999e-05
3.94528e-05
3.9877e-05
4.02665e-05
4.06158e-05
4.09248e-05
4.11897e-05
4.14089e-05
4.15789e-05
4.16991e-05
4.17641e-05
4.17699e-05
4.16971e-05
4.15786e-05
4.14354e-05
4.1214e-05
4.08928e-05
4.03907e-05
3.9659e-05
3.88498e-05
3.80557e-05
3.72286e-05
3.63124e-05
3.54186e-05
3.4512e-05
3.35609e-05
3.26117e-05
3.1658e-05
3.06914e-05
2.97251e-05
2.87741e-05
2.78176e-05
2.68755e-05
2.59538e-05
2.50429e-05
2.41534e-05
2.32837e-05
2.24417e-05
2.1626e-05
2.08329e-05
2.00644e-05
1.93405e-05
1.8631e-05
1.79641e-05
1.73151e-05
1.66927e-05
1.60867e-05
1.55198e-05
1.49686e-05
1.44513e-05
1.39482e-05
1.34709e-05
1.29955e-05
1.25578e-05
1.21215e-05
1.1696e-05
1.12993e-05
1.08971e-05
1.05233e-05
1.01633e-05
9.82913e-06
9.51799e-06
9.27455e-06
9.08226e-06
8.96843e-06
8.9166e-06
9.26676e-06
9.49498e-06
2.98596e-05
2.55059e-05
2.4348e-05
2.30377e-05
2.16865e-05
2.05639e-05
1.96384e-05
1.94553e-05
1.77962e-05
1.68729e-05
1.65816e-05
1.6952e-05
1.79221e-05
1.9454e-05
2.14169e-05
2.36319e-05
2.58663e-05
2.79079e-05
2.96286e-05
3.10047e-05
3.21019e-05
3.30198e-05
3.38288e-05
3.45466e-05
3.51486e-05
3.55975e-05
3.58867e-05
3.60426e-05
3.61151e-05
3.61402e-05
3.61328e-05
3.60845e-05
3.59915e-05
3.58529e-05
3.56821e-05
3.54843e-05
3.52644e-05
3.50219e-05
3.4762e-05
3.44703e-05
3.41538e-05
3.38449e-05
3.35357e-05
3.3151e-05
3.27633e-05
3.23833e-05
3.19597e-05
3.15474e-05
3.11292e-05
3.06721e-05
3.01958e-05
2.97357e-05
2.92851e-05
2.88192e-05
2.83469e-05
2.79006e-05
2.74472e-05
2.69937e-05
2.65595e-05
2.61294e-05
2.5703e-05
2.52868e-05
2.48791e-05
2.44716e-05
2.40759e-05
2.36841e-05
2.33008e-05
2.29413e-05
2.25787e-05
2.22325e-05
2.18954e-05
2.15676e-05
2.12495e-05
2.09429e-05
2.06405e-05
2.03482e-05
2.00578e-05
1.97718e-05
1.94878e-05
1.92066e-05
1.89236e-05
1.86425e-05
1.83575e-05
1.8069e-05
1.77739e-05
1.74684e-05
1.71483e-05
1.68115e-05
1.6457e-05
1.60797e-05
1.56872e-05
1.5279e-05
1.48685e-05
1.44684e-05
1.41344e-05
1.38873e-05
1.36982e-05
1.38916e-05
1.43801e-05
1.47757e-05
5.24706e-05
3.79614e-05
3.50819e-05
3.14561e-05
2.89153e-05
2.42544e-05
2.03554e-05
1.76822e-05
1.59358e-05
1.50352e-05
1.48467e-05
1.53348e-05
1.64282e-05
1.80321e-05
1.99849e-05
2.20733e-05
2.40686e-05
2.5797e-05
2.71926e-05
2.82944e-05
2.91944e-05
2.99807e-05
3.06817e-05
3.12719e-05
3.17038e-05
3.19502e-05
3.20367e-05
3.20168e-05
3.19448e-05
3.1845e-05
3.17146e-05
3.15428e-05
3.1333e-05
3.10973e-05
3.08524e-05
3.05988e-05
3.03364e-05
3.0075e-05
2.98251e-05
2.95907e-05
2.93724e-05
2.91599e-05
2.89561e-05
2.87633e-05
2.85835e-05
2.84166e-05
2.82623e-05
2.81203e-05
2.79857e-05
2.78649e-05
2.7753e-05
2.7656e-05
2.75709e-05
2.74898e-05
2.74242e-05
2.7369e-05
2.73207e-05
2.72839e-05
2.72607e-05
2.72463e-05
2.72399e-05
2.72435e-05
2.72537e-05
2.72698e-05
2.72929e-05
2.73214e-05
2.7354e-05
2.73929e-05
2.74371e-05
2.74875e-05
2.75454e-05
2.761e-05
2.76821e-05
2.77619e-05
2.78492e-05
2.79443e-05
2.80492e-05
2.81619e-05
2.82835e-05
2.84128e-05
2.85448e-05
2.86817e-05
2.88186e-05
2.89555e-05
2.90885e-05
2.92171e-05
2.9337e-05
2.94459e-05
2.9534e-05
2.96023e-05
2.96459e-05
2.96679e-05
2.967e-05
2.96634e-05
2.96628e-05
2.97126e-05
2.99104e-05
3.03336e-05
3.09893e-05
2.9418e-05
8.86074e-05
5.86937e-05
4.86689e-05
3.64616e-05
2.89914e-05
2.32945e-05
1.93582e-05
1.66767e-05
1.49732e-05
1.41281e-05
1.40045e-05
1.4547e-05
1.56743e-05
1.72705e-05
1.91678e-05
2.11398e-05
2.29723e-05
2.45156e-05
2.57383e-05
2.67052e-05
2.75185e-05
2.82523e-05
2.89118e-05
2.94509e-05
2.98169e-05
2.9996e-05
3.00287e-05
2.99783e-05
2.98935e-05
2.97888e-05
2.96519e-05
2.94748e-05
2.92669e-05
2.90472e-05
2.88314e-05
2.86197e-05
2.84106e-05
2.82089e-05
2.80268e-05
2.78715e-05
2.7741e-05
2.76312e-05
2.75388e-05
2.74666e-05
2.74146e-05
2.73814e-05
2.73646e-05
2.73636e-05
2.73791e-05
2.74112e-05
2.74584e-05
2.75188e-05
2.7591e-05
2.7674e-05
2.77691e-05
2.78739e-05
2.79884e-05
2.81146e-05
2.82519e-05
2.83979e-05
2.85513e-05
2.87109e-05
2.88748e-05
2.90422e-05
2.92125e-05
2.93854e-05
2.95611e-05
2.97407e-05
2.99244e-05
3.01143e-05
3.03102e-05
3.05129e-05
3.0723e-05
3.09404e-05
3.11662e-05
3.14e-05
3.16429e-05
3.18947e-05
3.21567e-05
3.24288e-05
3.27135e-05
3.30096e-05
3.33167e-05
3.36339e-05
3.39608e-05
3.4296e-05
3.46396e-05
3.49906e-05
3.53548e-05
3.57295e-05
3.61203e-05
3.65261e-05
3.69516e-05
3.7396e-05
3.78619e-05
3.83419e-05
3.88091e-05
3.9178e-05
3.90082e-05
3.88138e-05
8.05585e-05
5.40523e-05
4.79529e-05
3.66426e-05
2.9188e-05
2.34912e-05
1.9552e-05
1.68552e-05
1.51276e-05
1.42558e-05
1.41033e-05
1.46174e-05
1.57197e-05
1.72952e-05
1.91808e-05
2.11482e-05
2.2984e-05
2.45322e-05
2.57579e-05
2.67216e-05
2.75291e-05
2.82564e-05
2.89134e-05
2.9455e-05
2.98281e-05
3.00147e-05
3.00522e-05
3.0002e-05
2.99134e-05
2.9803e-05
2.9659e-05
2.94736e-05
2.92551e-05
2.90237e-05
2.87961e-05
2.85753e-05
2.83594e-05
2.81516e-05
2.79612e-05
2.77946e-05
2.7652e-05
2.75321e-05
2.74318e-05
2.73491e-05
2.7285e-05
2.72395e-05
2.72099e-05
2.71954e-05
2.7197e-05
2.72142e-05
2.72461e-05
2.72913e-05
2.73478e-05
2.74159e-05
2.74945e-05
2.7582e-05
2.76791e-05
2.77865e-05
2.79042e-05
2.80294e-05
2.81615e-05
2.82991e-05
2.84414e-05
2.85863e-05
2.87349e-05
2.8885e-05
2.90379e-05
2.9194e-05
2.93526e-05
2.95157e-05
2.96835e-05
2.98565e-05
3.00348e-05
3.02191e-05
3.04096e-05
3.06065e-05
3.08101e-05
3.10215e-05
3.1241e-05
3.14695e-05
3.17076e-05
3.19554e-05
3.22131e-05
3.24804e-05
3.27574e-05
3.30442e-05
3.33419e-05
3.36516e-05
3.39758e-05
3.43155e-05
3.4672e-05
3.50473e-05
3.54583e-05
3.5904e-05
3.64039e-05
3.69645e-05
3.75955e-05
3.82517e-05
3.84938e-05
3.85222e-05
4.45551e-05
3.38558e-05
3.17983e-05
2.88629e-05
2.67532e-05
2.46894e-05
2.07976e-05
1.8089e-05
1.62879e-05
1.53218e-05
1.50532e-05
1.54629e-05
1.64822e-05
1.8023e-05
1.99318e-05
2.19953e-05
2.3983e-05
2.57163e-05
2.71143e-05
2.82082e-05
2.9094e-05
2.98657e-05
3.05617e-05
3.11609e-05
3.16146e-05
3.18893e-05
3.19995e-05
3.19932e-05
3.19231e-05
3.18179e-05
3.16765e-05
3.14895e-05
3.12567e-05
3.09937e-05
3.07188e-05
3.04438e-05
3.01626e-05
2.98828e-05
2.96159e-05
2.9358e-05
2.90926e-05
2.88467e-05
2.8622e-05
2.83955e-05
2.81723e-05
2.79642e-05
2.77612e-05
2.75651e-05
2.73826e-05
2.72022e-05
2.70289e-05
2.6867e-05
2.67092e-05
2.65625e-05
2.64216e-05
2.62829e-05
2.61526e-05
2.60242e-05
2.59087e-05
2.57985e-05
2.56972e-05
2.55991e-05
2.55095e-05
2.54178e-05
2.53334e-05
2.52484e-05
2.51648e-05
2.50826e-05
2.49949e-05
2.49069e-05
2.48136e-05
2.47143e-05
2.46092e-05
2.44955e-05
2.4373e-05
2.42409e-05
2.40967e-05
2.39408e-05
2.37714e-05
2.35878e-05
2.33904e-05
2.31777e-05
2.29512e-05
2.271e-05
2.24563e-05
2.21893e-05
2.19175e-05
2.16436e-05
2.13731e-05
2.11133e-05
2.08736e-05
2.06592e-05
2.04686e-05
2.03416e-05
2.0279e-05
2.0344e-05
2.0597e-05
2.11467e-05
2.21558e-05
2.27595e-05
2.71211e-05
2.39555e-05
2.30487e-05
2.19904e-05
2.07608e-05
1.99192e-05
1.90378e-05
1.88914e-05
1.8217e-05
1.72399e-05
1.68661e-05
1.71294e-05
1.79825e-05
1.9391e-05
2.12468e-05
2.33769e-05
2.55638e-05
2.75916e-05
2.93125e-05
3.06881e-05
3.17759e-05
3.26762e-05
3.34703e-05
3.41901e-05
3.48166e-05
3.53102e-05
3.56489e-05
3.58504e-05
3.59512e-05
3.59936e-05
3.59931e-05
3.59494e-05
3.5853e-05
3.57089e-05
3.55275e-05
3.53244e-05
3.51028e-05
3.48617e-05
3.45993e-05
3.4314e-05
3.39954e-05
3.36644e-05
3.33448e-05
3.2992e-05
3.25743e-05
3.21748e-05
3.17356e-05
3.1268e-05
3.08233e-05
3.03298e-05
2.98149e-05
2.92906e-05
2.8741e-05
2.82144e-05
2.7683e-05
2.71289e-05
2.65841e-05
2.60423e-05
2.55001e-05
2.49646e-05
2.4432e-05
2.38988e-05
2.33798e-05
2.2856e-05
2.2337e-05
2.1825e-05
2.13126e-05
2.08042e-05
2.03076e-05
1.98195e-05
1.93478e-05
1.88779e-05
1.84213e-05
1.79681e-05
1.75291e-05
1.70927e-05
1.66651e-05
1.62453e-05
1.58322e-05
1.5425e-05
1.50292e-05
1.46373e-05
1.42583e-05
1.38881e-05
1.35277e-05
1.31808e-05
1.2842e-05
1.25185e-05
1.22079e-05
1.1918e-05
1.16432e-05
1.13952e-05
1.11699e-05
1.09797e-05
1.08361e-05
1.0715e-05
1.07842e-05
1.09917e-05
1.14942e-05
1.17695e-05
2.07807e-05
1.98561e-05
1.9174e-05
1.87072e-05
1.7824e-05
1.73351e-05
1.67226e-05
1.65387e-05
1.65813e-05
1.70681e-05
1.78343e-05
1.8846e-05
1.99408e-05
2.11899e-05
2.24857e-05
2.38653e-05
2.52919e-05
2.671e-05
2.80407e-05
2.92328e-05
3.02682e-05
3.117e-05
3.19741e-05
3.27274e-05
3.34487e-05
3.41532e-05
3.48309e-05
3.54822e-05
3.61006e-05
3.66926e-05
3.72586e-05
3.78036e-05
3.83256e-05
3.8823e-05
3.92935e-05
3.97369e-05
4.01483e-05
4.05215e-05
4.08543e-05
4.11447e-05
4.13897e-05
4.15872e-05
4.17357e-05
4.18296e-05
4.18678e-05
4.18287e-05
4.17363e-05
4.16147e-05
4.14284e-05
4.11333e-05
4.05952e-05
3.98564e-05
3.90122e-05
3.81867e-05
3.73266e-05
3.63923e-05
3.54664e-05
3.45094e-05
3.35415e-05
3.25587e-05
3.15688e-05
3.05645e-05
2.95713e-05
2.85821e-05
2.75939e-05
2.66265e-05
2.56753e-05
2.47401e-05
2.3822e-05
2.29306e-05
2.20607e-05
2.12332e-05
2.04329e-05
1.96496e-05
1.8912e-05
1.81871e-05
1.74893e-05
1.68216e-05
1.61807e-05
1.55466e-05
1.49645e-05
1.43732e-05
1.38214e-05
1.32802e-05
1.27615e-05
1.22628e-05
1.17877e-05
1.13316e-05
1.08842e-05
1.04684e-05
1.00768e-05
9.71806e-06
9.39049e-06
9.09078e-06
8.80921e-06
8.60066e-06
8.49805e-06
8.42109e-06
8.69911e-06
8.91057e-06
1.81519e-05
1.7915e-05
1.7352e-05
1.70939e-05
1.63696e-05
1.60481e-05
1.55924e-05
1.54576e-05
1.53847e-05
1.56469e-05
1.61134e-05
1.68715e-05
1.7825e-05
1.8967e-05
2.02503e-05
2.16547e-05
2.31399e-05
2.46676e-05
2.61845e-05
2.7643e-05
2.90086e-05
3.02726e-05
3.1443e-05
3.25498e-05
3.36146e-05
3.46608e-05
3.56942e-05
3.6716e-05
3.7717e-05
3.8694e-05
3.96392e-05
4.05521e-05
4.143e-05
4.22707e-05
4.30736e-05
4.38386e-05
4.45612e-05
4.52344e-05
4.58539e-05
4.64165e-05
4.69207e-05
4.73619e-05
4.77391e-05
4.80493e-05
4.82915e-05
4.84638e-05
4.85675e-05
4.86036e-05
4.85686e-05
4.84625e-05
4.82894e-05
4.80181e-05
4.77092e-05
4.73895e-05
4.69769e-05
4.64594e-05
4.59391e-05
4.53722e-05
4.47241e-05
4.40502e-05
4.33416e-05
4.25841e-05
4.1803e-05
4.09772e-05
4.01105e-05
3.92378e-05
3.83321e-05
3.73691e-05
3.64082e-05
3.51661e-05
3.3576e-05
3.20461e-05
3.05857e-05
2.91397e-05
2.77848e-05
2.64558e-05
2.51599e-05
2.38932e-05
2.26995e-05
2.14872e-05
2.03849e-05
1.92805e-05
1.82397e-05
1.72104e-05
1.62254e-05
1.52859e-05
1.44014e-05
1.35927e-05
1.27634e-05
1.19389e-05
1.11488e-05
1.04214e-05
9.76134e-06
9.1444e-06
8.50474e-06
7.95876e-06
7.61124e-06
7.47555e-06
7.46581e-06
7.62353e-06
1.63793e-05
1.64983e-05
1.60264e-05
1.59136e-05
1.53332e-05
1.51581e-05
1.47967e-05
1.47458e-05
1.46605e-05
1.48367e-05
1.51109e-05
1.56297e-05
1.63262e-05
1.7234e-05
1.83258e-05
1.95923e-05
2.10102e-05
2.25467e-05
2.41656e-05
2.58244e-05
2.74816e-05
2.91058e-05
3.0678e-05
3.21964e-05
3.36693e-05
3.51102e-05
3.65308e-05
3.79377e-05
3.93313e-05
4.0709e-05
4.20645e-05
4.33975e-05
4.47034e-05
4.59713e-05
4.71985e-05
4.83861e-05
4.95306e-05
5.06231e-05
5.16564e-05
5.26236e-05
5.35195e-05
5.4337e-05
5.50725e-05
5.57222e-05
5.62835e-05
5.67533e-05
5.71278e-05
5.74058e-05
5.75852e-05
5.76667e-05
5.765e-05
5.75343e-05
5.73262e-05
5.70271e-05
5.6625e-05
5.61209e-05
5.55039e-05
5.48338e-05
5.41498e-05
5.33774e-05
5.24742e-05
5.15563e-05
5.06221e-05
4.96118e-05
4.85642e-05
4.75096e-05
4.64196e-05
4.53105e-05
4.42096e-05
4.30967e-05
4.19679e-05
4.08405e-05
3.97039e-05
3.85599e-05
3.74197e-05
3.62833e-05
3.51521e-05
3.40149e-05
3.28507e-05
3.16787e-05
3.04718e-05
2.92664e-05
2.80311e-05
2.67789e-05
2.54161e-05
2.35173e-05
2.17625e-05
2.01715e-05
1.87389e-05
1.71794e-05
1.55291e-05
1.38029e-05
1.24973e-05
1.14397e-05
1.01516e-05
8.68159e-06
7.76582e-06
7.04522e-06
6.78492e-06
6.78456e-06
1.2888e-05
1.33343e-05
1.31424e-05
1.33304e-05
1.3139e-05
1.32765e-05
1.31875e-05
1.33409e-05
1.33784e-05
1.35974e-05
1.38181e-05
1.42115e-05
1.47158e-05
1.54003e-05
1.62523e-05
1.72785e-05
1.84784e-05
1.98361e-05
2.13367e-05
2.29445e-05
2.46149e-05
2.63122e-05
2.80074e-05
2.96866e-05
3.13594e-05
3.30348e-05
3.47186e-05
3.64123e-05
3.81202e-05
3.98462e-05
4.15916e-05
4.33278e-05
4.50306e-05
4.67043e-05
4.83577e-05
4.99881e-05
5.15873e-05
5.31491e-05
5.46681e-05
5.61355e-05
5.75407e-05
5.88716e-05
6.01209e-05
6.12828e-05
6.23521e-05
6.33257e-05
6.41983e-05
6.4966e-05
6.56233e-05
6.61681e-05
6.65982e-05
6.6911e-05
6.71056e-05
6.71812e-05
6.71346e-05
6.69663e-05
6.66802e-05
6.62863e-05
6.57861e-05
6.5164e-05
6.44182e-05
6.35775e-05
6.26148e-05
6.15645e-05
6.04806e-05
5.93226e-05
5.80023e-05
5.6638e-05
5.52579e-05
5.37851e-05
5.22529e-05
5.07125e-05
4.9126e-05
4.74913e-05
4.58598e-05
4.42299e-05
4.25865e-05
4.0962e-05
3.93628e-05
3.77726e-05
3.62002e-05
3.46559e-05
3.31358e-05
3.16381e-05
3.0155e-05
2.86609e-05
2.71674e-05
2.56617e-05
2.41145e-05
2.25421e-05
2.08744e-05
1.91252e-05
1.72524e-05
1.53027e-05
1.33038e-05
1.13212e-05
9.53939e-06
8.31678e-06
7.08959e-06
6.52304e-06
7.90222e-06
8.40139e-06
8.63347e-06
9.14598e-06
9.53439e-06
1.00994e-05
1.06098e-05
1.11722e-05
1.14603e-05
1.17439e-05
1.20374e-05
1.23825e-05
1.28e-05
1.33118e-05
1.39395e-05
1.46744e-05
1.55254e-05
1.64727e-05
1.74982e-05
1.86059e-05
1.98199e-05
2.11646e-05
2.26488e-05
2.42635e-05
2.59806e-05
2.77677e-05
2.96024e-05
3.14668e-05
3.3348e-05
3.52349e-05
3.71161e-05
3.89845e-05
4.08382e-05
4.26763e-05
4.45009e-05
4.63192e-05
4.81349e-05
4.99486e-05
5.17558e-05
5.35475e-05
5.53105e-05
5.70267e-05
5.8687e-05
6.02841e-05
6.1805e-05
6.32442e-05
6.45979e-05
6.58603e-05
6.7022e-05
6.80775e-05
6.90232e-05
6.98548e-05
7.05687e-05
7.11633e-05
7.16359e-05
7.19856e-05
7.22113e-05
7.2315e-05
7.22968e-05
7.21549e-05
7.1873e-05
7.14712e-05
7.09476e-05
7.03134e-05
6.95732e-05
6.87157e-05
6.77184e-05
6.66136e-05
6.5434e-05
6.4124e-05
6.27283e-05
6.12858e-05
5.97638e-05
5.80922e-05
5.63667e-05
5.45862e-05
5.2686e-05
5.07129e-05
4.86935e-05
4.65884e-05
4.44008e-05
4.21595e-05
3.98691e-05
3.75303e-05
3.51575e-05
3.27779e-05
3.0409e-05
2.80659e-05
2.57767e-05
2.356e-05
2.13857e-05
1.92439e-05
1.71313e-05
1.49787e-05
1.28818e-05
1.09187e-05
9.08425e-06
7.55935e-06
6.64163e-06
7.53048e-06
1.20343e-05
1.17124e-05
1.16529e-05
1.14984e-05
1.14804e-05
1.13697e-05
1.1374e-05
1.13161e-05
1.13517e-05
1.13933e-05
1.14847e-05
1.15882e-05
1.17011e-05
1.18413e-05
1.20264e-05
1.22688e-05
1.25736e-05
1.29405e-05
1.33757e-05
1.38865e-05
1.44811e-05
1.51687e-05
1.59543e-05
1.6842e-05
1.78304e-05
1.89103e-05
2.00679e-05
2.1286e-05
2.25424e-05
2.38078e-05
2.50548e-05
2.62827e-05
2.75112e-05
2.87584e-05
3.00365e-05
3.1356e-05
3.27241e-05
3.41416e-05
3.56056e-05
3.71107e-05
3.86481e-05
4.02032e-05
4.17539e-05
4.32797e-05
4.47693e-05
4.62199e-05
4.76265e-05
4.89824e-05
5.02807e-05
5.1516e-05
5.26835e-05
5.37792e-05
5.47993e-05
5.57419e-05
5.66044e-05
5.73847e-05
5.80788e-05
5.86821e-05
5.91892e-05
5.95944e-05
5.9907e-05
6.01248e-05
6.0255e-05
6.02957e-05
6.02431e-05
6.00939e-05
5.98371e-05
5.94718e-05
5.90104e-05
5.84479e-05
5.77841e-05
5.70265e-05
5.61247e-05
5.51036e-05
5.40062e-05
5.28132e-05
5.14303e-05
4.99265e-05
4.83341e-05
4.66167e-05
4.47689e-05
4.28064e-05
4.07407e-05
3.8586e-05
3.63247e-05
3.39826e-05
3.15549e-05
2.90479e-05
2.64175e-05
2.36682e-05
2.08319e-05
1.80222e-05
1.53129e-05
1.26901e-05
1.02558e-05
8.11397e-06
6.49914e-06
5.29805e-06
4.56034e-06
5.03717e-06
5.31878e-06
5.30125e-06
5.30012e-06
5.28746e-06
5.28426e-06
5.27401e-06
5.26677e-06
5.25616e-06
5.24549e-06
5.23261e-06
5.21859e-06
5.20248e-06
5.18463e-06
5.16453e-06
5.14249e-06
5.11846e-06
5.0927e-06
5.06527e-06
5.03628e-06
5.00575e-06
4.97388e-06
4.94103e-06
4.90775e-06
4.87464e-06
4.84241e-06
4.81179e-06
4.78347e-06
4.75813e-06
4.73642e-06
4.71913e-06
4.70713e-06
4.70013e-06
4.6969e-06
4.69729e-06
4.70183e-06
4.71123e-06
4.72649e-06
4.74847e-06
4.77743e-06
4.82156e-06
4.87574e-06
4.93942e-06
5.01363e-06
5.09772e-06
5.19067e-06
5.29172e-06
5.40012e-06
5.5149e-06
5.63497e-06
5.75929e-06
5.88682e-06
6.01656e-06
6.14749e-06
6.27889e-06
6.41014e-06
6.54093e-06
6.67108e-06
6.80046e-06
6.9289e-06
7.05605e-06
7.18179e-06
7.30558e-06
7.42989e-06
7.55306e-06
7.6717e-06
7.79199e-06
7.91304e-06
8.03328e-06
8.15311e-06
8.27356e-06
8.39535e-06
8.51858e-06
8.64043e-06
8.76196e-06
8.89212e-06
9.03127e-06
9.16713e-06
9.3007e-06
9.44196e-06
9.59063e-06
9.74487e-06
9.90571e-06
1.00741e-05
1.02502e-05
1.04287e-05
1.06048e-05
1.0758e-05
1.08398e-05
1.07786e-05
1.04487e-05
9.62505e-06
8.16023e-06
6.36969e-06
4.42153e-06
2.90711e-06
2.03278e-06
2.04908e-06
3.308e-06
3.23892e-06
3.43388e-06
8.5652e-06
7.91248e-07
1.00637e-06
1.33485e-06
1.63483e-06
1.94242e-06
2.25925e-06
2.59505e-06
2.93126e-06
3.28176e-06
3.64795e-06
3.9518e-06
4.17245e-06
4.30677e-06
4.42116e-06
4.90132e-06
6.31235e-06
7.67693e-06
8.38573e-06
4.34382e-06
3.79928e-06
1.01667e-06
1.01635e-06
1.21191e-06
1.44377e-06
1.72526e-06
2.0422e-06
2.36663e-06
2.70147e-06
3.06527e-06
3.41925e-06
3.70933e-06
3.96134e-06
4.16819e-06
4.5147e-06
5.44806e-06
7.16008e-06
8.14897e-06
8.29761e-06
4.46268e-06
3.38973e-06
1.47146e-06
1.4871e-06
1.46477e-06
1.61503e-06
1.83285e-06
2.08108e-06
2.38307e-06
2.73349e-06
3.18886e-06
3.42547e-06
3.64499e-06
3.88715e-06
4.26948e-06
5.00576e-06
6.44033e-06
8.12402e-06
8.56579e-06
8.1074e-06
4.59517e-06
3.74899e-06
2.11078e-06
2.13599e-06
1.96179e-06
2.10259e-06
2.17837e-06
2.45308e-06
2.77957e-06
3.26252e-06
3.89214e-06
3.82794e-06
3.97668e-06
4.4695e-06
5.12679e-06
6.42235e-06
8.02655e-06
8.69072e-06
9.0295e-06
7.80711e-06
4.74537e-06
4.41337e-06
3.02879e-06
3.051e-06
2.75801e-06
3.0404e-06
3.02979e-06
3.41375e-06
3.80488e-06
4.50191e-06
5.09725e-06
4.85653e-06
5.47519e-06
6.10473e-06
7.29226e-06
8.76933e-06
9.17978e-06
9.45831e-06
8.84364e-06
7.4933e-06
4.90169e-06
5.39105e-06
4.30407e-06
4.2976e-06
3.92966e-06
4.32328e-06
4.45859e-06
5.0523e-06
5.84908e-06
7.12567e-06
7.66001e-06
8.19004e-06
8.91976e-06
9.85751e-06
1.09057e-05
1.02695e-05
1.0189e-05
9.66491e-06
8.76504e-06
7.05099e-06
4.54185e-06
7.01062e-06
6.31353e-06
6.33372e-06
6.14304e-06
6.88027e-06
7.69036e-06
9.28703e-06
1.13304e-05
1.45601e-05
1.51299e-05
1.43333e-05
1.3265e-05
1.26482e-05
1.18317e-05
1.12696e-05
1.05344e-05
9.78327e-06
8.57212e-06
6.36901e-06
3.71111e-06
1.07011e-05
1.10328e-05
1.15274e-05
1.2584e-05
1.47503e-05
1.76788e-05
2.15349e-05
2.00494e-05
1.89124e-05
1.71768e-05
1.59944e-05
1.48153e-05
1.38976e-05
1.28469e-05
1.1916e-05
1.09414e-05
9.68802e-06
8.12133e-06
5.36751e-06
2.82745e-06
2.33966e-05
2.57033e-05
2.68468e-05
2.89623e-05
2.70655e-05
2.54253e-05
2.32306e-05
2.17225e-05
1.99444e-05
1.86358e-05
1.72803e-05
1.60727e-05
1.49375e-05
1.34014e-05
1.23871e-05
1.08071e-05
9.21574e-06
6.92114e-06
3.86539e-06
1.855e-06
3.452e-05
3.28732e-05
3.06562e-05
2.84028e-05
2.66204e-05
2.45417e-05
2.31121e-05
2.12901e-05
2.01223e-05
1.84658e-05
1.74647e-05
1.57953e-05
1.47775e-05
1.28574e-05
1.15357e-05
9.10091e-06
7.11932e-06
3.93861e-06
2.14265e-06
8.86554e-07
3.4948e-05
3.30793e-05
3.1514e-05
2.88811e-05
2.74902e-05
2.5045e-05
2.38354e-05
2.17825e-05
2.07756e-05
1.90324e-05
1.81672e-05
1.65322e-05
1.5667e-05
1.4002e-05
1.28067e-05
1.10858e-05
8.6585e-06
5.53481e-06
2.83719e-06
1.12987e-06
1.71692e-05
1.89926e-05
1.99016e-05
2.19246e-05
2.5233e-05
2.40303e-05
2.27506e-05
2.08439e-05
1.95617e-05
1.80798e-05
1.70188e-05
1.59371e-05
1.49226e-05
1.40906e-05
1.27065e-05
1.16647e-05
1.01365e-05
8.21066e-06
4.66752e-06
2.19755e-06
9.27468e-06
9.02968e-06
9.16508e-06
9.38608e-06
1.06902e-05
1.25919e-05
1.53776e-05
1.82625e-05
1.75109e-05
1.62423e-05
1.52214e-05
1.41376e-05
1.35441e-05
1.28794e-05
1.22034e-05
1.1492e-05
1.02556e-05
8.9583e-06
6.15513e-06
3.20289e-06
6.64143e-06
5.83044e-06
5.77079e-06
5.39495e-06
5.9167e-06
6.2962e-06
7.37144e-06
8.80517e-06
1.08913e-05
1.16527e-05
1.22739e-05
1.29557e-05
1.19893e-05
1.16895e-05
1.13276e-05
1.10016e-05
1.02732e-05
9.25274e-06
7.10544e-06
4.1431e-06
5.21693e-06
4.08054e-06
4.05215e-06
3.67336e-06
4.01015e-06
4.06842e-06
4.5549e-06
5.11701e-06
6.12095e-06
6.4128e-06
6.74902e-06
7.55785e-06
8.65596e-06
1.01963e-05
1.01997e-05
1.02928e-05
1.02495e-05
9.38752e-06
7.7167e-06
5.00417e-06
4.30082e-06
2.8892e-06
2.88068e-06
2.57102e-06
2.80839e-06
2.782e-06
3.11611e-06
3.47498e-06
4.09048e-06
4.60965e-06
4.38532e-06
4.86056e-06
5.53677e-06
6.74087e-06
8.46199e-06
9.23985e-06
9.68908e-06
9.47164e-06
8.08449e-06
5.14541e-06
3.72022e-06
2.04506e-06
2.05384e-06
1.889e-06
2.01352e-06
2.07591e-06
2.30673e-06
2.60443e-06
3.04954e-06
3.61488e-06
3.60939e-06
3.77205e-06
4.17963e-06
4.85153e-06
6.16358e-06
7.99224e-06
8.93355e-06
9.61057e-06
8.41114e-06
4.97302e-06
3.50456e-06
1.42761e-06
1.41672e-06
1.41943e-06
1.56716e-06
1.78912e-06
2.02473e-06
2.31209e-06
2.63401e-06
3.06533e-06
3.31334e-06
3.54752e-06
3.78716e-06
4.11947e-06
4.87472e-06
6.38151e-06
8.28762e-06
9.01212e-06
8.68879e-06
4.81105e-06
4.18748e-06
1.00345e-06
9.96584e-07
1.19016e-06
1.42382e-06
1.69566e-06
1.99767e-06
2.31695e-06
2.64528e-06
2.99355e-06
3.35214e-06
3.64769e-06
3.88887e-06
4.08015e-06
4.39373e-06
5.38876e-06
7.25748e-06
8.50372e-06
8.86333e-06
4.67023e-06
9.04755e-06
7.89481e-07
9.92358e-07
1.31754e-06
1.63038e-06
1.94436e-06
2.23787e-06
2.5505e-06
2.86796e-06
3.21082e-06
3.55132e-06
3.875e-06
4.09436e-06
4.22379e-06
4.33446e-06
4.81454e-06
6.3293e-06
7.98683e-06
8.96339e-06
4.54571e-06
1.23372e-06
0.000116583
0.000294295
0.000330916
0.000334811
0.000335356
0.000335357
0.000335342
0.000335343
0.000335346
0.000335346
0.000335343
0.000335342
0.000335357
0.000335356
0.000334811
0.000330916
0.000294295
0.000116583
1.23371e-06
1.3706e-06
6.81428e-05
0.000219511
0.000309475
0.000330902
0.000334526
0.000335272
0.000335315
0.000335296
0.000335287
0.000335287
0.000335296
0.000335315
0.000335272
0.000334526
0.000330902
0.000309475
0.000219511
6.81426e-05
1.3706e-06
1.5145e-06
5.28126e-05
0.000176242
0.000280428
0.000322083
0.000332497
0.000334603
0.0003351
0.000335167
0.000335172
0.000335172
0.000335167