/*--------------------------------*- C++ -*----------------------------------*\
| =========                 |                                                 |
| \\      /  F ield         | OpenFOAM: The Open Source CFD Toolbox           |
|  \\    /   O peration     | Version:  2.1.0                                 |
|   \\  /    A nd           | Web:      www.OpenFOAM.org                      |
|    \\/     M anipulation  |                                                 |
\*---------------------------------------------------------------------------*/
FoamFile
{
    version     2.0;
    format      ascii;
    class       volScalarField;
    location    "0.09";
    object      omega;
}
// * * * * * * * * * * * * * * * * * * * * * * * * * * * * * * * * * * * * * //

dimensions      [0 0 -1 0 0 0 0];

internalField   nonuniform List<scalar> 
6400
(
1510.61
1507.09
1505.39
1501.76
1499.02
1495.05
1491.25
1486.7
1481.95
1476.62
1470.95
1464.78
1458.18
1451.07
1443.53
1435.55
1427.17
1418.41
1409.29
1399.84
1390.09
1380.13
1370.05
1359.95
1349.94
1340.14
1330.64
1321.54
1312.94
1304.95
1297.65
1290.91
1284.62
1278.81
1273.54
1268.93
1265.11
1262.01
1260.42
1260.26
1261.06
1262.97
1265.91
1269.72
1274.28
1279.45
1285.07
1290.99
1297.06
1303.13
1309.07
1314.75
1320.08
1324.98
1329.44
1333.43
1336.92
1339.9
1342.31
1344.12
1344.89
1344.99
1344.66
1343.63
1341.77
1339.02
1335.4
1330.97
1325.69
1319.3
1311.92
1303.98
1295.45
1285.69
1274.62
1262.6
1249.84
1236.34
1222.11
1207.22
1191.65
1175.34
1157.7
1138.46
1118.46
1096.95
1073.03
1046.12
1014.96
977.602
931.327
870.91
789.584
679.062
537.676
479.836
514.671
664.139
777.751
810.494
761.088
752.516
748.498
740.557
735.05
726.999
720.279
712.097
704.53
696.172
687.879
679.061
670.254
661.28
652.402
643.615
634.847
626.037
617.926
610.97
605.861
604.083
603.789
604.107
605.388
607.768
611.171
615.447
620.433
625.982
631.977
638.338
645.016
651.972
659.173
666.585
674.178
681.915
689.772
697.731
705.764
713.84
721.945
730.071
738.221
746.395
754.596
762.827
771.093
779.403
787.765
796.19
804.697
813.304
822.039
830.925
839.984
849.234
858.695
868.395
878.361
888.61
899.19
910.126
921.4
933.126
945.336
958.092
971.435
985.396
1000.05
1015.48
1031.74
1048.86
1066.93
1086.06
1106.37
1127.95
1150.95
1175.51
1200.89
1227.3
1254.9
1283.32
1312.21
1340.93
1368.73
1394.83
1418.38
1438.56
1452.8
1459
1459.71
1443.76
1405.25
1318.47
1198.61
1051.38
891.948
733.659
308.524
302.001
299.517
295.14
292.918
289.738
288.436
287.42
287.124
287.041
287.285
288.225
289.895
291.971
294.382
297.614
303.168
311.83
322.728
334.731
347.149
359.769
372.58
385.543
398.623
411.832
425.14
438.466
451.729
464.871
477.873
490.725
503.431
515.999
528.44
540.763
552.971
565.058
577.02
588.847
600.532
612.072
623.473
634.744
645.906
656.975
667.975
678.928
689.858
700.796
711.767
722.8
733.924
745.172
756.573
768.159
779.956
791.991
804.294
816.892
829.812
843.08
856.724
870.765
885.237
900.057
915.242
930.762
946.599
962.711
979.045
995.587
1012.31
1029.11
1045.96
1062.91
1079.9
1096.88
1113.87
1130.92
1148.02
1165.17
1182.41
1199.75
1217
1234.01
1250.56
1266.09
1279.88
1289.73
1294.15
1294.89
1281.46
1253.14
1200.38
1118.57
1005.36
861.63
702.035
551.507
92.2325
92.5915
94.5033
97.4911
101.693
107.246
114.356
123.034
133.977
147.042
161.673
176.582
191.233
205.214
218.714
231.925
245.268
258.929
272.907
287.077
301.359
315.756
330.296
345.011
359.851
374.67
389.383
403.984
418.485
432.869
447.119
461.207
475.142
488.937
502.607
516.156
529.588
542.9
556.091
569.155
582.082
594.868
607.512
620.018
632.392
644.64
656.769
668.789
680.71
692.545
704.301
715.99
727.618
739.196
750.729
762.217
773.66
785.064
796.422
807.736
818.999
830.226
841.421
852.522
863.494
874.422
885.292
896
906.586
917.064
927.34
937.395
947.247
956.778
965.915
974.657
982.852
990.356
997.098
1002.92
1007.74
1011.12
1012.72
1013.2
1011.5
1006.95
1000.18
989.819
976.124
958.068
935.508
907.095
872.31
829.441
776.933
712.858
640.079
562.711
493.264
451.058
32.4341
37.579
42.4771
50.0627
59.3083
70.4644
83.2924
97.5268
112.746
128.543
144.366
159.851
174.794
189.202
203.147
216.676
229.86
242.848
255.794
268.86
282.13
295.618
309.292
323.077
336.915
350.745
364.536
378.278
391.959
405.575
419.098
432.519
445.815
459.001
472.066
485.018
497.839
510.531
523.077
535.475
547.705
559.761
571.631
583.31
594.788
606.06
617.117
627.96
638.581
648.979
659.146
669.077
678.764
688.212
697.414
706.329
714.977
723.369
731.426
739.168
746.605
753.683
760.368
766.645
772.448
777.792
782.658
786.915
790.594
793.608
795.843
797.079
797.583
797.621
796.148
793.839
790.339
785.556
779.745
772.409
764
754.028
742.857
730.242
716.313
701.103
684.502
666.974
648.324
628.754
608.159
586.407
563.192
538.097
510.432
481.322
451.488
425.067
408.732
400.999
19.3904
26.5751
32.1688
41.4498
51.7558
64.252
78.0961
93.0511
108.464
123.839
138.798
153.056
166.461
178.979
190.645
201.668
212.304
222.899
233.67
244.789
256.275
268.036
279.972
291.954
303.939
315.903
327.871
339.848
351.821
363.753
375.592
387.321
398.915
410.431
421.829
433.099
444.194
455.118
465.842
476.363
486.647
496.687
506.46
515.953
525.143
534.008
542.529
550.706
558.513
565.917
572.891
579.439
585.495
591.048
596.154
600.701
604.697
608.229
611.178
613.569
615.388
616.445
616.905
617.008
616.344
614.7
612.741
609.784
606.206
601.989
596.898
591.277
584.908
577.871
570.343
562.258
553.806
545.021
535.837
526.301
516.573
506.745
497.14
487.609
478.184
468.894
459.838
451.182
442.58
434.186
425.977
417.73
409.349
400.817
392.167
383.81
376.973
373.682
372.654
372.273
15.9413
23.6467
29.134
38.8954
49.0648
61.7585
75.3048
89.8112
104.425
118.743
132.275
144.639
155.658
165.375
173.989
181.909
189.567
197.376
205.536
214.117
222.998
232.009
241.019
249.971
258.905
267.875
276.956
286.135
295.347
304.514
313.578
322.528
331.376
340.171
348.835
357.312
365.546
373.539
381.255
388.68
395.761
402.48
408.812
414.745
420.236
425.257
429.807
433.841
437.332
440.308
442.743
444.632
445.841
446.386
446.571
446.501
445.572
444.047
442.318
439.955
437.095
434.022
430.518
426.671
422.633
418.345
413.889
409.354
404.8
400.274
395.799
391.481
387.221
383.195
379.353
375.749
372.376
369.241
366.259
363.596
361.141
359.018
357.117
355.49
354.004
352.792
351.74
350.83
350.062
349.382
348.792
348.268
347.929
347.784
347.911
349.026
350.874
354.687
356.859
357.141
14.3917
22.1099
27.4215
37.224
47.1201
59.7202
72.8009
86.7718
100.449
113.466
125.134
135.124
143.34
149.977
155.502
160.49
165.456
170.745
176.412
182.337
188.292
194.1
199.713
205.213
210.727
216.34
222.061
227.807
233.49
239.065
244.539
249.932
255.206
260.31
265.19
269.837
274.219
278.326
282.129
285.611
288.742
291.523
293.941
296.001
297.703
299.067
300.053
300.503
300.685
300.724
300.597
300.107
299.372
298.512
297.516
296.454
295.265
294.045
292.892
291.741
290.652
289.721
288.9
288.207
287.718
287.452
287.345
287.341
287.682
288.153
288.843
289.745
290.811
292.099
293.553
295.187
296.994
298.956
301.068
303.339
305.73
308.259
310.888
313.622
316.435
319.329
322.269
325.246
328.267
331.298
334.379
337.506
340.746
344.153
347.895
352.193
357.01
362.478
365.133
365.577
13.546
21.2075
26.4083
36.1284
45.8936
58.2188
70.8906
84.2466
96.9673
108.636
118.451
126.218
131.948
136.046
139.173
141.984
145.005
148.457
152.258
156.156
159.894
163.335
166.524
169.609
172.725
175.912
179.099
182.186
185.131
187.949
190.69
193.369
195.957
198.417
200.725
202.901
204.955
206.892
208.698
210.373
211.923
213.371
214.723
215.984
217.177
218.32
219.411
220.481
221.559
222.653
223.788
224.974
226.208
227.509
228.904
230.404
231.994
233.7
235.535
237.487
239.567
241.785
244.133
246.613
249.237
251.998
254.896
257.936
261.119
264.443
267.914
271.533
275.3
279.222
283.295
287.524
291.91
296.456
301.166
306.043
311.106
316.345
321.759
327.343
333.095
339.007
345.069
351.267
357.563
363.94
370.378
376.86
383.389
389.985
396.716
403.796
411.745
420.505
428.622
432.547
13.2275
20.8368
26.0178
35.613
45.301
57.4272
69.8377
82.8166
94.9725
105.865
114.7
121.318
125.799
128.657
130.6
132.332
134.357
136.855
139.693
142.585
145.271
147.635
149.758
151.8
153.884
156.03
158.163
160.203
162.134
163.996
165.853
167.715
169.561
171.362
173.116
174.854
176.596
178.348
180.099
181.851
183.616
185.41
187.236
189.095
190.989
192.928
194.921
196.971
199.08
201.251
203.492
205.809
208.199
210.664
213.215
215.851
218.575
221.391
224.304
227.315
230.429
233.649
236.978
240.42
243.982
247.665
251.476
255.421
259.506
263.735
268.12
272.668
277.384
282.281
287.366
292.654
298.153
303.879
309.844
316.065
322.538
329.295
336.35
343.728
351.445
359.528
367.995
376.879
386.23
396.079
406.502
417.549
429.308
441.848
455.281
469.66
484.897
500.582
512.812
518.219
13.281
20.8841
26.0408
35.6491
45.3112
57.4475
69.8817
82.8827
95.1289
106.117
115.098
121.862
126.489
129.463
131.488
133.268
135.315
137.829
140.688
143.616
146.345
148.756
150.924
153.007
155.13
157.317
159.497
161.581
163.554
165.449
167.331
169.211
171.071
172.881
174.638
176.372
178.105
179.845
181.575
183.297
185.023
186.773
188.552
190.354
192.184
194.052
195.967
197.934
199.954
202.029
204.171
206.384
208.666
211.021
213.458
215.974
218.577
221.267
224.049
226.926
229.901
232.976
236.156
239.441
242.839
246.351
249.981
253.736
257.62
261.638
265.793
270.087
274.53
279.122
283.873
288.79
293.879
299.148
304.602
310.25
316.101
322.163
328.449
334.97
341.739
348.772
356.089
363.711
371.67
379.992
388.702
397.845
407.555
417.869
428.984
441.026
454.205
468.274
480.404
486.04
13.7192
21.3489
26.475
36.1498
45.8448
58.1615
70.7759
84.1803
96.9806
108.837
118.903
126.977
133.001
137.356
140.656
143.577
146.648
150.128
153.976
157.959
161.805
165.37
168.681
171.879
175.1
178.401
181.732
184.98
188.093
191.071
193.964
196.789
199.531
202.147
204.611
206.932
209.125
211.198
213.131
214.917
216.563
218.089
219.507
220.811
222.013
223.139
224.191
225.187
226.151
227.084
228.036
229.027
230.029
231.072
232.187
233.372
234.645
236.005
237.464
239.036
240.715
242.506
244.424
246.449
248.591
250.853
253.225
255.706
258.299
260.991
263.791
266.703
269.714
272.826
276.036
279.334
282.718
286.186
289.73
293.349
297.039
300.796
304.616
308.499
312.439
316.434
320.466
324.561
328.709
332.944
337.273
341.723
346.285
351.083
356.204
361.883
368.306
375.438
380.585
382.746
14.6755
22.3256
27.4696
37.1714
46.9354
59.4152
72.3416
86.2713
99.9523
113.092
124.954
135.256
143.818
150.768
156.539
161.699
166.737
172.064
177.775
183.789
189.884
195.873
201.692
207.397
213.103
218.911
224.828
230.797
236.738
242.59
248.351
254.035
259.642
265.131
270.45
275.527
280.356
284.931
289.223
293.211
296.873
300.188
303.144
305.74
307.974
309.836
311.335
312.463
313.056
313.31
313.383
313.319
312.863
312.083
311.151
310.095
308.953
307.653
306.259
304.897
303.529
302.157
300.927
299.795
298.752
297.91
297.228
296.711
296.45
296.344
296.342
296.665
297.111
297.727
298.531
299.454
300.515
301.695
302.978
304.333
305.786
307.266
308.809
310.378
311.974
313.614
315.358
317.149
319.061
321.065
323.224
325.526
328.086
330.816
333.888
337.528
341.953
346.705
348.891
348.57
16.1286
23.6991
28.9683
38.5679
48.5152
61.0178
74.3304
88.68
103.177
117.47
131.053
143.57
154.84
164.775
173.603
181.704
189.427
197.262
205.404
213.977
222.889
231.982
241.107
250.206
259.274
268.397
277.596
286.909
296.276
305.648
314.95
324.164
333.279
342.281
351.172
359.956
368.578
376.966
385.112
393.008
400.626
407.918
414.863
421.449
427.652
433.43
438.776
443.66
448.038
451.918
455.288
458.089
460.36
462.049
462.97
463.373
463.468
463.044
461.696
460.12
458.049
455.293
452.266
448.842
444.952
440.884
436.548
431.933
427.276
422.495
417.728
413.105
408.604
404.258
400.136
396.217
392.46
388.888
385.579
382.383
379.493
376.726
374.126
371.648
369.275
366.996
364.726
362.487
360.093
357.656
355.102
352.517
349.877
347.527
345.179
344.041
343.658
345.805
347.527
347.587
19.2856
26.2483
31.6099
40.647
50.6521
62.8725
76.4121
91.1059
106.313
121.539
136.414
150.637
164.094
176.669
188.405
199.515
210.145
220.693
231.346
242.318
253.655
265.295
277.136
289.058
300.987
312.908
324.816
336.739
348.658
360.558
372.397
384.138
395.764
407.257
418.634
429.907
441.065
452.056
462.875
473.503
483.943
494.162
504.15
513.893
523.375
532.581
541.494
550.092
558.376
566.334
573.929
581.119
587.937
594.303
600.214
605.69
610.671
615.139
619.097
622.495
625.379
627.738
629.568
630.638
631.126
631.252
630.692
629.162
627.371
624.616
621.265
617.312
612.541
607.331
601.45
595.039
588.219
580.813
573.068
564.937
556.447
547.822
538.846
529.625
520.063
510.221
500.31
490.26
479.869
468.725
456.877
444.417
431.582
418.311
404.264
390.685
378.908
371.276
367.739
364.978
31.7398
36.558
41.2467
48.5186
57.4265
68.2332
80.7191
94.646
109.607
125.18
140.828
156.153
170.955
185.207
199.031
212.463
225.547
238.398
251.147
263.966
276.965
290.18
303.596
317.142
330.762
344.393
357.999
371.559
385.062
398.497
411.857
425.112
438.252
451.262
464.157
476.93
489.593
502.121
514.52
526.769
538.873
550.814
562.586
574.185
585.604
596.838
607.886
618.74
629.405
639.877
650.157
660.24
670.129
679.809
689.289
698.575
707.628
716.454
725.071
733.424
741.503
749.342
756.92
764.163
771.104
777.695
783.858
789.633
795.021
799.888
804.238
808.034
811.132
813.589
815.255
816.048
816.302
815.725
813.821
811.255
807.097
802.03
795.348
787.437
777.733
766.234
752.701
736.893
718.871
698.244
674.915
648.433
618.731
585.482
549.436
510.515
471.729
435.929
411.181
396.999
90.0702
90.1985
91.7628
94.5254
98.4864
103.708
110.543
118.947
129.682
142.531
156.929
171.62
186.067
199.904
213.309
226.349
239.442
252.784
266.439
280.279
294.234
308.28
322.451
336.768
351.257
365.822
380.329
394.71
408.975
423.135
437.174
451.062
464.781
478.339
491.756
505.044
518.203
531.233
544.134
556.902
569.532
582.017
594.354
606.547
618.601
630.524
642.325
654.015
665.604
677.107
688.538
699.908
711.232
722.52
733.784
745.037
756.283
767.528
778.781
790.043
801.316
812.606
823.912
835.241
846.612
857.976
869.293
880.642
892.037
903.377
914.7
926.058
937.356
948.565
959.718
970.756
981.587
992.188
1002.5
1012.42
1021.78
1030.49
1038.28
1044.92
1050.11
1052.73
1053.64
1051.75
1044.77
1033.64
1015.84
991.053
955.983
909.411
850.519
777.253
691.554
598.328
516.903
458.096
305.442
298.703
296.135
291.621
289.358
285.984
284.573
283.31
282.906
282.775
282.921
283.695
285.213
287.17
289.424
292.276
297.015
304.808
315.045
326.565
338.589
350.814
363.238
375.872
388.653
401.538
414.532
427.586
440.614
453.547
466.344
478.993
491.488
503.834
516.038
528.11
540.051
551.859
563.528
575.047
586.411
597.612
608.649
619.529
630.262
640.87
651.37
661.784
672.135
682.45
692.755
703.081
713.456
723.912
734.484
745.208
756.119
767.25
778.636
790.312
802.315
814.681
827.446
840.648
854.324
868.507
883.235
898.542
914.353
930.667
947.467
964.742
982.443
1000.52
1018.96
1037.74
1056.74
1075.98
1095.49
1115.19
1135.06
1155.18
1175.54
1196.1
1216.86
1237.75
1258.63
1278.93
1297.92
1314.47
1324.05
1327.56
1319.98
1288.85
1234.19
1154.46
1045.65
909.839
745.502
581.601
759.834
751.185
747.115
739.056
733.494
725.37
718.535
710.262
702.566
694.09
685.729
676.836
667.938
658.884
649.851
640.885
631.874
622.616
613.705
605.881
599.352
595.776
594.853
594.832
595.541
597.313
600.153
603.939
608.509
613.703
619.387
625.465
631.873
638.568
645.512
652.673
660.013
667.497
675.09
682.767
690.511
698.292
706.085
713.875
721.656
729.431
737.203
744.972
752.74
760.514
768.299
776.105
783.943
791.828
799.781
807.829
815.999
824.317
832.81
841.502
850.426
859.619
869.131
878.992
889.216
899.842
910.904
922.426
934.54
947.283
960.716
974.889
989.852
1005.68
1022.5
1040.35
1059.25
1079.31
1100.7
1123.48
1147.78
1173.78
1201.74
1230.1
1259.92
1289.98
1319.62
1347.23
1370.93
1385.86
1391.9
1392.34
1381.03
1362.35
1327.5
1267.57
1177.14
1058.61
922.177
768.274
1510.69
1507.08
1505.33
1501.59
1498.78
1494.74
1490.82
1486.2
1481.33
1475.93
1470.14
1463.86
1457.14
1449.91
1442.24
1434.11
1425.58
1416.67
1407.4
1397.78
1387.86
1377.69
1367.37
1356.99
1346.65
1336.46
1326.52
1316.94
1307.79
1299.19
1291.25
1283.95
1277.11
1270.72
1264.83
1259.53
1254.93
1251.15
1248.17
1246.96
1246.98
1248.04
1250.25
1253.49
1257.6
1262.47
1267.96
1273.94
1280.25
1286.77
1293.35
1299.87
1306.22
1312.29
1318.03
1323.38
1328.32
1332.82
1336.85
1340.36
1343.31
1345.65
1347.54
1348.87
1349.25
1349.18
1348.56
1347.22
1345.12
1342.29
1338.72
1334.34
1328.89
1322.33
1315.21
1307.44
1298.08
1287.06
1274.91
1261.49
1246.52
1229.89
1211.49
1191.16
1168.44
1143
1113.8
1078.87
1035.86
981.166
908.515
815.538
716.072
614.202
533.068
487.823
512.117
667.984
800.62
839.915
756.907
296.633
164.595
112.16
88.0398
70.3571
57.4325
51.3303
45.4307
42.774
42.0088
42.9261
48.4605
62.7535
88.7801
141.036
230.689
367.548
555.323
730.748
612.101
300.695
198.649
141.286
108.159
85.9651
73.325
62.9822
56.147
53.1363
52.3038
53.9638
63.1536
78.882
112.729
170.731
263.529
391.756
557.263
702.759
495.231
294.176
223.768
163.413
129.187
105.24
87.008
75.6701
69.0591
66.5288
66.1664
70.6406
81.104
104.743
143.387
207.772
299.018
413.989
554.585
670.615
414.061
282.576
235.12
174.897
146.977
118.379
103.365
92.2671
87.0029
84.9884
84.8384
90.6633
109.24
135.986
182.806
249.009
333.43
430.837
545.822
633.997
362.547
275.151
240.843
188.556
165.574
138.171
125.504
113.891
108.984
107.128
107.898
124.686
145.51
181.057
230.48
292.218
363.036
439.224
526.982
592.686
330.013
270.577
244.532
200.821
182.043
158.423
148.081
140.593
138.318
139.746
153.51
173.006
199.874
236.95
281.188
331.294
384.21
435.542
496.384
547.637
315.222
274.848
255.785
223.473
209.741
195.964
191.19
189.776
193.997
204.98
220.893
241.033
265.76
295.151
326.736
359.156
389.193
422.298
452.312
499.674
329.488
308.502
299.164
284.65
279.254
276.354
275.405
276.834
283.49
291.269
302.642
314.3
328.784
342.936
357.16
369.573
382.834
392.749
395.166
451.423
419.041
409.042
404.279
390.848
384.631
376.516
372.669
369.318
367.815
367.118
366.957
367.322
367.532
367.497
365.781
363.561
358.024
338.502
327.369
402.039
502.16
485.147
477.48
458.997
450.378
435.858
428.704
417.004
411.177
401.557
396.195
387.348
380.519
369.522
357.17
337.058
309.231
279.202
265.964
357.136
474.021
458.419
451.697
435.8
428.502
417.587
412.249
404.969
401.422
396.55
394.132
390.198
387.314
382.049
376.15
364.151
339.161
306.953
289.821
368.059
360.555
352.605
347.994
338.786
334.928
332.069
331.06
332.422
337.487
343.063
351.034
359.22
368.222
376.022
381.902
386.776
389.145
379.738
365.23
419.055
308.426
281.016
268.333
246.645
238.084
232.933
231.886
235.801
243.824
257.802
273.537
294.753
316.971
342.708
366.509
389.324
409.082
427.147
433.12
471.642
306.201
264.279
244.157
209.075
193.997
176.209
169.007
165.839
166.226
178.253
194.956
219.434
249.821
287.763
329.278
372.183
413.329
453.094
490.702
524.413
322.812
262.861
236.872
193.62
174.692
150.409
139.552
130.095
126.718
125.994
137.076
157.233
185.86
227.368
279.671
339.309
402.716
463.97
533.159
575.407
354.82
267.339
232.707
180.543
157.561
130.452
117.862
106.899
102.097
100.259
100.192
114.748
136.648
173.181
227.504
297.477
379.035
466.218
562.375
622.864
408.044
276.491
229.074
170.307
142.526
114.164
98.1481
87.0773
81.7372
79.8131
79.7854
85.4488
102.686
130.946
179.731
251.903
345.739
453.892
579.482
665.927
495.736
287.186
215.522
158.138
124.655
101.954
84.0958
72.9443
66.0061
63.3326
62.8919
67.1018
77.9212
100.696
141.725
210.06
309.936
436.038
587.089
703.774
631.596
296.169
194.049
136.209
104.991
83.0007
70.2451
60.5334
53.8978
50.9473
50.1373
51.7526
60.5768
77.2677
111.048
172.526
272.548
411.788
589.15
736.864
787.235
295.601
160.819
108.969
84.8765
69.3426
56.0511
49.5774
43.808
41.1126
40.3291
41.3582
47.0517
61.0945
88.9436
142.545
238.941
386.581
585.654
765.65
645.957
32.1672
12.7314
11.3225
11.19
11.171
11.1705
11.1708
11.1706
11.1705
11.1705
11.1706
11.1708
11.1705
11.171
11.19
11.3225
12.7314
32.1672
645.956
672.913
55.083
17.0445
12.0882
11.3042
11.1804
11.1547
11.1529
11.1534
11.1536
11.1536
11.1534
11.1529
11.1547
11.1804
11.3042
12.0882
17.0445
55.0831
672.914
698.647
71.2077
21.1799
13.3103
11.5896
11.2263
11.1552
11.1382
11.1358
11.1355
11.1355
11.1358
11.1382
11.1552
11.2263
11.5896
13.3103
21.1799
71.208
698.648
722.764
85.625
25.0942
14.6342
12.0389
11.3361
11.1682
11.1265
11.1182
11.1171
11.1171
11.1182
11.1265
11.1682
11.3361
12.0389
14.6342
25.0942
85.6246
722.763
746.481
101.672
29.1642
16.0533
12.5839
11.5218
11.2061
11.1273
11.105
11.1003
11.1003
11.105
11.1273
11.2061
11.5218
12.5839
16.0533
29.1641
101.672
746.481
769.718
118.716
33.4228
17.5559
13.2029
11.7648
11.2835
11.1367
11.0945
11.0843
11.0843
11.0945
11.1367
11.2835
11.7648
13.2029
17.556
33.423
118.717
769.718
791.098
135.293
37.6424
19.0739
13.8591
12.0469
11.3887
11.1606
11.0919
11.0719
11.0719
11.0919
11.1606
11.3887
12.0469
13.859
19.0738
37.6421
135.292
791.098
810.624
151.01
41.7388
20.5752
14.5317
12.3555
11.517
11.2028
11.0955
11.0624
11.0624
11.0955
11.2028
11.517
12.3555
14.5317
20.5753
41.739
151.011
810.625
829.52
166.68
45.8727
22.1
15.23
12.6912
11.6681
11.2593
11.1063
11.0593
11.0593
11.1063
11.2593
11.6681
12.6912
15.23
22.1
45.8726
166.679
829.519
847.853
182.492
50.1205
23.6752
15.962
13.0554
11.8423
11.332
11.1287
11.0618
11.0618
11.1287
11.3321
11.8423
13.0553
15.962
23.6751
50.1201
182.491
847.853
864.469
197.517
54.3083
25.2539
16.7082
13.4374
12.0342
11.4193
11.1614
11.0698
11.0698
11.1614
11.4192
12.0342
13.4374
16.7082
25.254
54.3085
197.517
864.47
878.982
211.229
58.2762
26.7811
17.4438
13.824
12.2361
11.517
11.2028
11.0866
11.0866
11.2028
11.517
12.2361
13.8239
17.4437
26.7808
58.2756
211.228
878.981
892.237
224.137
62.0888
28.2642
18.1674
14.2119
12.4451
11.6233
11.2523
11.111
11.111
11.2523
11.6233
12.4451
14.2119
18.1674
28.264
62.0879
224.136
892.237
904.858
236.831
65.9065
29.7536
18.8981
14.6091
12.6649
11.7404
11.3113
11.1437
11.1437
11.3112
11.7403
12.6648
14.6089
18.8978
29.7532
65.9057
236.829
904.859
916.406
249.12
69.7447
31.2664
19.6448
15.0196
12.897
11.8687
11.3802
11.1855
11.1855
11.3802
11.8687
12.897
15.0195
19.6445
31.2657
69.7427
249.115
916.407
926.218
260.381
73.4532
32.7611
20.392
15.436
13.1372
12.0059
11.4582
11.2361
11.2361
11.4581
12.0058
13.1372
15.4359
20.3918
32.7603
73.4505
260.374
926.22
934.413
270.401
76.9027
34.1836
21.115
15.8455
13.3785
12.148
11.5426
11.2936
11.2936
11.5426
12.1479
13.3783
15.8452
21.1145
34.1824
76.8994
270.394
934.417
941.686
279.59
80.147
35.5397
21.8127
16.246
13.6185
12.2931
11.6322
11.3571
11.3572
11.6322
12.293
13.6184
16.2455
21.8116
35.5371
80.1403
279.578
941.692
948.41
288.387
83.3189
36.8707
22.4992
16.6424
13.8591
12.4417
11.7271
11.4269
11.4268
11.727
12.4415
13.8589
16.6421
22.4984
36.8683
83.3115
288.37
948.417
954.3
296.766
86.4734
38.2091
23.1927
17.0454
14.1067
12.5979
11.83
11.5048
11.5047
11.8298
12.5976
14.1061
17.0444
23.1909
38.205
86.4613
296.741
954.311
958.938
304.328
89.5133
39.5316
23.8871
17.4534
14.3604
12.7604
11.939
11.5886
11.5885
11.9389
12.7601
14.3597
17.4519
23.884
39.5244
89.4936
304.296
958.958
962.367
310.773
92.2626
40.77
24.5521
17.8507
14.6116
12.9253
12.054
11.6803
11.6803
12.0539
12.9252
14.6113
17.8497
24.5496
40.7633
92.2433
310.741
962.396
965.07
316.229
94.6687
41.8899
25.1671
18.2244
14.8536
13.0899
12.1735
11.7786
11.7785
12.1731
13.0893
14.8529
18.2234
25.1647
41.8828
94.6471
316.194
965.105
967.508
321.126
96.8665
42.9246
25.7451
18.5818
15.0884
13.25
12.288
11.871
11.8709
12.2877
13.2492
15.0867
18.5785
25.7388
42.91
96.8245
321.064
967.553
969.779
325.666
98.9086
43.8903
26.2935
18.9284
15.3165
13.4035
12.3969
11.9591
11.9591
12.3967
13.4028
15.3145
18.9239
26.2848
43.871
98.857
325.596
969.847
971.638
329.738
100.709
44.7683
26.7984
19.2506
15.5345
13.5593
12.5191
12.067
12.0666
12.5182
13.5579
15.5327
19.2478
26.7921
44.7524
100.668
329.689
971.73
972.697
333.232
102.311
45.5874
27.2798
19.552
15.7474
13.7292
12.6656
12.2011
12.2007
12.6646
13.7282
15.7469
19.5517
27.2765
45.5741
102.268
333.181
972.809
972.964
336.165
103.815
46.3759
27.7673
19.8744
15.9835
13.9162
12.8155
12.3301
12.3302
12.8157
13.916
15.9828
19.8731
27.7631
46.3598
103.752
336.092
973.09
973.107
338.575
105.087
47.0801
28.2375
20.2482
16.2768
14.1236
12.9553
12.4411
12.4419
12.9565
14.1231
16.2735
20.242
28.2311
47.0643
105.032
338.551
973.268
973.594
340.604
106.001
47.6565
28.6594
20.6439
16.6127
14.3401
13.0961
12.5609
12.5611
13.0971
14.3377
16.6027
20.6318
28.6494
47.642
105.972
340.658
973.822
974.2
342.321
106.669
48.1355
29.0488
21.0049
16.9239
14.5592
13.2692
12.7187
12.7184
13.2681
14.554
16.912
20.9921
29.0402
48.1276
106.66
342.42
974.408
974.238
343.924
107.313
48.5936
29.466
21.3447
17.1854
14.7754
13.4592
12.9001
12.8996
13.4572
14.7691
17.1767
21.3376
29.461
48.603
107.357
344.126
974.431
974.118
345.588
108.02
49.0928
29.9365
21.753
17.4633
14.9936
13.6809
13.1216
13.1216
13.6806
14.9904
17.4579
21.7517
29.9439
49.1284
108.125
345.888
974.303
973.757
347.275
108.82
49.6842
30.4845
22.2285
17.8274
15.2911
13.9567
13.3919
13.3933
13.9594
15.2901
17.8284
22.2397
30.508
49.7326
108.91
347.533
973.914
972.939
349.036
109.736
50.4046
31.1483
22.7956
18.2698
15.6493
14.2699
13.688
13.6899
14.2774
15.6619
18.2854
22.8181
31.1742
50.4487
109.772
349.212
973.067
971.937
350.971
110.841
51.2688
31.8903
23.4061
18.7661
16.0336
14.5709
13.9623
13.966
14.5858
16.0536
18.786
23.4463
31.9496
51.3393
110.942
351.26
972.034
970.061
352.625
112.159
52.2241
32.6601
24.0081
19.208
16.3516
14.8082
14.1666
14.1708
14.8208
16.3678
19.24
24.0794
32.7561
52.3612
112.419
353.044
970.059
966.659
353.381
113.449
53.1035
33.3345
24.4974
19.5213
16.5408
14.9394
14.2717
14.2747
14.9493
16.553
19.5531
24.5894
33.4837
53.3175
113.826
353.82
966.519
961.868
353.473
114.405
53.7115
33.7855
24.7827
19.668
16.6122
14.9786
14.295
14.2962
14.9836
16.6163
19.6945
24.8887
33.9719
53.9733
114.792
353.845
961.6
956.206
353.471
114.884
53.9644
33.9542
24.8725
19.6907
16.6068
14.961
14.2701
14.27
14.962
16.6041
19.7119
24.9799
34.1563
54.2368
115.22
353.749
955.832
950.271
353.818
114.981
53.9726
33.9548
24.8449
19.6243
16.5044
14.8347
14.1272
14.1225
14.8227
16.482
19.6331
24.949
34.158
54.2411
115.279
353.971
949.818
944.552
355.861
114.853
53.758
33.7607
24.5876
19.2888
16.1081
14.3874
13.6432
13.6254
14.3398
16.0384
19.2606
24.6737
33.9532
54.0145
115.123
355.782
944.032
939.335
362.182
113.866
52.7358
32.881
23.634
18.1692
14.8476
13.0528
12.267
12.227
12.9313
14.6674
18.0272
23.6482
33.032
52.9607
114.082
361.904
938.77
934.745
368.634
109.781
49.4636
30.2707
21.1504
15.81
12.7303
11.1056
10.4007
10.3563
10.9745
12.5187
15.6223
21.0852
30.3386
49.606
109.863
368.429
934.155
930.798
372.652
106.857
45.7164
27.0567
18.3906
13.4403
10.6761
9.25098
8.60813
8.54898
9.09913
10.4597
13.2144
18.2918
27.0875
45.7782
106.68
372.417
930.209
927.459
374.464
106.782
42.9204
24.2781
15.9389
11.357
8.90039
7.62217
7.04049
6.9868
7.46518
8.65432
11.0889
15.8048
24.2719
42.9194
106.518
374.098
926.905
924.672
375.266
107.491
40.8488
22.0052
13.9144
9.63834
7.43783
6.29748
5.7904
5.74715
6.15778
7.20794
9.39079
13.7506
21.9384
40.7522
107.1
374.742
924.196
922.383
375.538
108.649
39.2694
20.2226
12.3361
8.34791
6.33788
5.30322
4.84957
4.8079
5.18137
6.10863
8.08287
12.1819
20.1409
39.0419
107.865
374.911
922.02
920.558
375.514
109.068
38.0339
18.9313
11.2202
7.4264
5.5522
4.60929
4.19021
4.14965
4.48035
5.33815
7.16089
11.0242
18.8023
37.7543
108.019
374.816
920.305
919.119
375.173
109.094
37.1426
18.0354
10.438
6.80894
5.04266
4.13174
3.73585
3.70496
4.01256
4.8076
6.52589
10.2489
17.8827
36.8179
107.967
374.331
918.971
918.006
374.583
109.023
36.5379
17.4475
9.95554
6.39313
4.67602
3.81632
3.44528
3.41591
3.71913
4.47151
6.12037
9.74556
17.2783
36.1601
107.719
373.609
917.948
917.139
373.973
108.794
36.1177
17.0941
9.64909
6.11883
4.44194
3.61774
3.26307
3.25762
3.56696
4.30502
5.90803
9.4353
16.8923
35.7299
107.322
372.855
917.173
916.465
373.279
108.298
35.8141
16.8339
9.42429
5.94894
4.29157
3.49052
3.16016
3.15972
3.47871
4.22014
5.81373
9.27906
16.6663
35.4751
107.111
372.347
916.572
915.965
372.653
107.818
35.5669
16.6867
9.30313
5.85415
4.21746
3.42846
3.11235
3.1064
3.41141
4.16006
5.7494
9.18892
16.5701
35.3621
107.063
372.114
916.087
915.552
372.232
107.534
35.451
16.5845
9.23795
5.81312
4.18562
3.38761
3.07933
3.06327
3.35619
4.10069
5.69282
9.13312
16.5204
35.3284
107.031
371.924
915.705
915.177
372.008
107.426
35.4014
16.5447
9.21827
5.80464
4.16504
3.37861
3.06066
3.03761
3.33057
4.07442
5.65902
9.09935
16.4927
35.299
106.951
371.525
915.41
914.888
371.824
107.376
35.3792
16.5258
9.20262
5.77712
4.15103
3.36753
3.0489
3.02805
3.32778
4.06925
5.62802
9.07361
16.4509
35.2388
106.701
371.013
915.223
914.655
371.554
107.299
35.3703
16.5082
9.15818
5.72919
4.12606
3.34632
3.02708
3.01531
3.31949
4.0587
5.62934
9.05641
16.3925
35.1359
106.373
370.748
915.116
914.464
371.155
107.147
35.3308
16.4814
9.13804
5.72771
4.10107
3.34095
3.02497
3.01282
3.3121
4.04716
5.6245
9.04077
16.3692
35.0811
106.227
370.674
915.037
914.307
370.683
106.819
35.2651
16.4538
9.11254
5.70931
4.10584
3.33354
3.01416
3.01159
3.29968
4.0385
5.62623
9.03871
16.3618
35.0506
106.196
370.682
914.94
914.193
370.285
106.431
35.1424
16.3795
9.10435
5.69925
4.09623
3.33115
3.01123
3.01242
3.29613
4.03554
5.62995
9.04043
16.3608
35.0541
106.206
370.752
914.821
914.15
369.962
106.071
35.0273
16.3165
9.06763
5.69516
4.10245
3.32483
3.01257
3.01049
3.30069
4.02567
5.61832
9.0561
16.3809
35.058
106.256
370.801
914.7
914.151
369.754
105.769
34.9248
16.2573
9.03341
5.70201
4.10752
3.32537
3.0116
3.00728
3.29662
4.02223
5.62718
9.07303
16.3844
35.0731
106.349
370.793
914.575
914.174
369.665
105.555
34.836
16.2257
9.01499
5.69059
4.10374
3.3344
3.01631
3.00449
3.29776
4.03667
5.64011
9.068
16.3897
35.0911
106.442
370.735
914.448
914.251
369.645
105.431
34.7986
16.2019
8.99222
5.68107
4.10004
3.33494
3.02842
3.00702
3.31394
4.09248