/*--------------------------------*- C++ -*----------------------------------*\
| =========                 |                                                 |
| \\      /  F ield         | OpenFOAM: The Open Source CFD Toolbox           |
|  \\    /   O peration     | Version:  2.1.0                                 |
|   \\  /    A nd           | Web:      www.OpenFOAM.org                      |
|    \\/     M anipulation  |                                                 |
\*---------------------------------------------------------------------------*/
FoamFile
{
    version     2.0;
    format      ascii;
    class       volScalarField;
    location    "0.09";
    object      p;
}
// * * * * * * * * * * * * * * * * * * * * * * * * * * * * * * * * * * * * * //

dimensions      [1 -1 -2 0 0 0 0];

internalField   nonuniform List<scalar> 
6400
(
100009
100008
100007
100007
100006
100006
100005
100004
100003
100002
100001
99998.9
99996.9
99994.7
99992.1
99989.3
99986.2
99982.7
99979
99975
99970.7
99966.1
99961.3
99956.1
99950.7
99945
99939.1
99932.9
99926.5
99919.9
99913.1
99906.1
99898.9
99891.6
99884.1
99876.5
99868.7
99860.8
99852.9
99844.9
99836.8
99828.6
99820.5
99812.3
99804.1
99795.9
99787.7
99779.5
99771.2
99763
99754.8
99746.5
99738.3
99730
99721.6
99713.2
99704.7
99696.1
99687.5
99678.7
99669.7
99660.6
99651.3
99641.8
99632.1
99622.2
99612
99601.5
99590.7
99579.6
99568.2
99556.4
99544.2
99531.7
99518.7
99505.4
99491.6
99477.4
99462.7
99447.6
99431.9
99415.7
99398.9
99381.3
99362.8
99343.1
99322.1
99299.3
99274.4
99247.1
99217.5
99186.3
99155.6
99126.6
99098.3
99069.1
99017.8
98911.7
98564.6
97048.7
100009
100006
100005
100004
100003
100003
100002
100002
100001
99999.5
99998.1
99996.4
99994.5
99992.4
99989.9
99987.2
99984.2
99980.9
99977.3
99973.4
99969.1
99964.6
99959.8
99954.8
99949.4
99943.8
99937.9
99931.8
99925.5
99918.9
99912.2
99905.2
99898
99890.7
99883.2
99875.6
99867.8
99860
99852
99844
99835.9
99827.7
99819.6
99811.4
99803.2
99795
99786.8
99778.6
99770.4
99762.2
99754
99745.7
99737.5
99729.2
99720.9
99712.5
99704
99695.5
99686.8
99678
99669.1
99660
99650.8
99641.3
99631.7
99621.8
99611.6
99601.2
99590.5
99579.4
99568
99556.3
99544.2
99531.7
99518.8
99505.6
99491.8
99477.7
99463
99447.9
99432.3
99416.1
99399.3
99381.8
99363.3
99343.8
99322.8
99300.1
99275.4
99248.4
99219
99188.1
99157.3
99128.4
99103.8
99077.4
99031.6
98939.9
98660
98146.3
100008
100005
100004
100003
100003
100002
100002
100001
100000
99999.3
99998
99996.4
99994.5
99992.3
99989.9
99987.2
99984.2
99980.8
99977.2
99973.3
99969.1
99964.5
99959.7
99954.6
99949.2
99943.6
99937.7
99931.5
99925.2
99918.6
99911.8
99904.8
99897.7
99890.3
99882.8
99875.2
99867.4
99859.5
99851.5
99843.5
99835.4
99827.3
99819.1
99810.9
99802.7
99794.5
99786.4
99778.2
99770
99761.8
99753.6
99745.4
99737.2
99729
99720.7
99712.3
99703.9
99695.4
99686.8
99678.1
99669.3
99660.3
99651.1
99641.7
99632.2
99622.3
99612.3
99601.9
99591.3
99580.4
99569.1
99557.5
99545.6
99533.2
99520.5
99507.4
99493.8
99479.8
99465.3
99450.4
99434.9
99418.8
99402.1
99384.7
99366.3
99346.8
99325.9
99303.4
99278.9
99252.4
99224
99194.6
99166
99140.4
99119.4
99095.7
99065
99010.3
98868.8
98970.1
100006
100004
100003
100003
100003
100003
100002
100002
100001
99999.7
99998.4
99996.8
99994.9
99992.7
99990.3
99987.5
99984.5
99981.2
99977.5
99973.6
99969.3
99964.8
99959.9
99954.8
99949.4
99943.7
99937.8
99931.7
99925.3
99918.7
99911.9
99904.9
99897.7
99890.4
99882.9
99875.2
99867.4
99859.6
99851.6
99843.6
99835.5
99827.3
99819.2
99811
99802.9
99794.7
99786.6
99778.4
99770.3
99762.1
99754
99745.8
99737.7
99729.5
99721.2
99713
99704.6
99696.2
99687.7
99679
99670.3
99661.3
99652.2
99643
99633.5
99623.8
99613.8
99603.5
99593
99582.1
99571
99559.4
99547.5
99535.3
99522.5
99509.4
99495.8
99481.8
99467.3
99452.2
99436.6
99420.4
99403.5
99385.7
99367.1
99347.4
99326.3
99303.8
99279.6
99253.8
99226.8
99199.9
99175.2
99154.6
99140
99130.7
99128.9
99137.9
99171.3
99587.1
100003
100003
100003
100003
100003
100003
100003
100002
100001
100000
99998.9
99997.3
99995.4
99993.3
99990.8
99988.1
99985
99981.7
99978
99974.1
99969.8
99965.2
99960.4
99955.3
99949.9
99944.2
99938.3
99932.1
99925.8
99919.2
99912.3
99905.4
99898.2
99890.8
99883.3
99875.7
99867.9
99860
99852.1
99844.1
99836
99827.9
99819.8
99811.6
99803.5
99795.4
99787.2
99779.1
99771
99762.9
99754.8
99746.6
99738.5
99730.4
99722.2
99713.9
99705.6
99697.2
99688.7
99680.1
99671.3
99662.4
99653.4
99644.1
99634.6
99624.9
99614.9
99604.7
99594.1
99583.2
99572
99560.5
99548.6
99536.3
99523.5
99510.3
99496.6
99482.5
99467.9
99452.7
99436.9
99420.5
99403.3
99385.4
99366.5
99346.5
99325.3
99302.8
99279
99254.1
99228.9
99205.3
99185.5
99171.9
99168.1
99180.5
99219.3
99311.5
99508.3
100070
99999.4
100001
100002
100003
100003
100003
100003
100003
100002
100001
99999.5
99997.9
99996
99993.8
99991.4
99988.6
99985.6
99982.3
99978.6
99974.7
99970.4
99965.9
99961.1
99955.9
99950.6
99944.9
99939
99932.8
99926.5
99919.9
99913.1
99906.1
99898.9
99891.5
99884
99876.4
99868.6
99860.8
99852.8
99844.8
99836.8
99828.7
99820.5
99812.4
99804.3
99796.1
99788
99779.9
99771.7
99763.6
99755.5
99747.4
99739.2
99731.1
99722.8
99714.6
99706.2
99697.8
99689.3
99680.7
99671.9
99663
99653.9
99644.7
99635.2
99625.4
99615.5
99605.2
99594.7
99583.8
99572.6
99561
99549.1
99536.7
99523.9
99510.7
99496.9
99482.7
99467.9
99452.5
99436.5
99419.9
99402.4
99384.2
99365
99344.7
99323.3
99300.8
99277.4
99253.6
99230.4
99210.1
99195.8
99190.2
99200.3
99238.4
99324.3
99504.2
99829.7
100445
99996.4
99999.9
100002
100003
100004
100004
100004
100003
100002
100001
100000
99998.4
99996.5
99994.4
99991.9
99989.2
99986.2
99982.9
99979.3
99975.3
99971.1
99966.6
99961.8
99956.7
99951.3
99945.6
99939.7
99933.6
99927.2
99920.6
99913.8
99906.8
99899.6
99892.2
99884.7
99877.1
99869.3
99861.5
99853.5
99845.5
99837.5
99829.3
99821.2
99813.1
99804.9
99796.8
99788.6
99780.5
99772.3
99764.2
99756
99747.9
99739.7
99731.5
99723.3
99715
99706.6
99698.2
99689.6
99681
99672.2
99663.3
99654.2
99644.9
99635.4
99625.7
99615.7
99605.5
99595
99584.1
99572.9
99561.3
99549.3
99536.9
99524.1
99510.7
99496.9
99482.5
99467.6
99452.1
99435.9
99418.9
99401.2
99382.6
99363
99342.5
99320.9
99298.4
99275.4
99252.5
99231.2
99214
99204.8
99207.4
99231.8
99296
99428.7
99687.9
100104
100726
99994.3
99998.7
100001
100003
100004
100004
100004
100004
100003
100002
100000
99998.9
99997
99994.8
99992.3
99989.6
99986.6
99983.3
99979.7
99975.8
99971.6
99967.1
99962.3
99957.2
99951.8
99946.2
99940.3
99934.2
99927.8
99921.2
99914.4
99907.4
99900.2
99892.8
99885.3
99877.7
99869.9
99862
99854
99846
99837.9
99829.8
99821.6
99813.5
99805.3
99797.1
99788.9
99780.7
99772.6
99764.4
99756.3
99748.1
99739.9
99731.6
99723.4
99715.1
99706.7
99698.2
99689.7
99681
99672.2
99663.3
99654.2
99644.9
99635.5
99625.7
99615.8
99605.6
99595.1
99584.2
99573.1
99561.5
99549.5
99537.1
99524.4
99510.9
99497
99482.6
99467.5
99451.8
99435.3
99418.1
99400.1
99381.1
99361.2
99340.2
99318.4
99295.8
99273.1
99250.9
99231.1
99216.5
99211.3
99221.2
99258.2
99345.2
99518.2
99840.1
100313
100923
99993.3
99998.1
100001
100003
100004
100004
100004
100004
100003
100002
100001
99999.2
99997.3
99995.1
99992.6
99989.9
99986.9
99983.6
99980
99976.1
99971.9
99967.4
99962.6
99957.5
99952.1
99946.5
99940.6
99934.5
99928.1
99921.5
99914.7
99907.7
99900.5
99893.1
99885.6
99877.9
99870.1
99862.2
99854.3
99846.2
99838.1
99829.9
99821.8
99813.6
99805.4
99797.2
99789
99780.8
99772.6
99764.4
99756.2
99748
99739.8
99731.6
99723.3
99715
99706.6
99698.2
99689.6
99681
99672.2
99663.3
99654.3
99645
99635.6
99625.9
99616
99605.8
99595.4
99584.6
99573.4
99561.9
99549.9
99537.5
99524.5
99511.3
99497.3
99482.8
99467.6
99451.7
99435.1
99417.6
99399.2
99379.8
99359.5
99338.2
99316
99293.3
99270.6
99249
99230.2
99217.2
99214.7
99230
99276.5
99379.6
99581.4
99946.1
100451
101047
99993.1
99997.9
100001
100003
100004
100004
100004
100004
100003
100002
100001
99999.3
99997.4
99995.2
99992.7
99990
99987
99983.7
99980.1
99976.2
99972
99967.4
99962.6
99957.6
99952.2
99946.6
99940.7
99934.5
99928.2
99921.6
99914.7
99907.7
99900.5
99893.2
99885.6
99878
99870.2
99862.3
99854.3
99846.2
99838.1
99829.9
99821.8
99813.6
99805.4
99797.1
99788.9
99780.7
99772.5
99764.4
99756.2
99748
99739.8
99731.5
99723.3
99715
99706.6
99698.2
99689.6
99681
99672.3
99663.4
99654.4
99645.2
99635.8
99626.1
99616.3
99606.1
99595.7
99585
99573.9
99562.4
99550.5
99538.1
99525.2
99511.8
99497.8
99483.2
99467.9
99451.8
99435
99417.2
99398.5
99378.7
99358
99336.2
99313.7
99290.6
99267.8
99246.3
99227.9
99215.7
99214.5
99232.4
99283.8
99395.1
99611.1
99996.8
100516
101106
99993.1
99997.9
100001
100003
100004
100004
100004
100004
100003
100002
100001
99999.3
99997.4
99995.2
99992.7
99990
99987
99983.7
99980.1
99976.2
99972
99967.4
99962.6
99957.6
99952.2
99946.6
99940.7
99934.5
99928.2
99921.6
99914.7
99907.7
99900.5
99893.2
99885.6
99878
99870.2
99862.3
99854.3
99846.2
99838.1
99829.9
99821.8
99813.6
99805.3
99797.1
99788.9
99780.7
99772.5
99764.3
99756.2
99748
99739.8
99731.5
99723.3
99715
99706.6
99698.2
99689.7
99681.1
99672.4
99663.6
99654.6
99645.4
99636
99626.5
99616.6
99606.5
99596.2
99585.5
99574.4
99563
99551.1
99538.7
99525.8
99512.4
99498.4
99483.7
99468.3
99452
99434.9
99416.9
99397.8
99377.7
99356.5
99334.3
99311.3
99287.8
99264.6
99242.9
99224.3
99211.9
99210.4
99228
99279.1
99389.6
99604.1
99987.3
100504
101094
99993.3
99998.1
100001
100003
100004
100004
100004
100004
100003
100002
100001
99999.2
99997.3
99995.1
99992.6
99989.9
99986.9
99983.6
99980
99976.1
99971.9
99967.4
99962.6
99957.5
99952.1
99946.5
99940.6
99934.5
99928.1
99921.5
99914.7
99907.6
99900.5
99893.1
99885.6
99877.9
99870.1
99862.2
99854.2
99846.2
99838.1
99829.9
99821.7
99813.5
99805.3
99797.1
99788.9
99780.7
99772.5
99764.3
99756.2
99748
99739.8
99731.5
99723.3
99715
99706.7
99698.3
99689.8
99681.2
99672.6
99663.7
99654.8
99645.7
99636.3
99626.8
99617
99607
99596.7
99586.1
99575.1
99563.6
99551.8
99539.4
99526.6
99513.1
99499.1
99484.3
99468.8
99452.4
99435
99416.7
99397.3
99376.8
99355.2
99332.5
99308.9
99284.8
99261.1
99238.7
99219.4
99205.9
99202.7
99217.3
99263
99363.6
99560.9
99919.2
100420
101016
99994.5
99998.9
100001
100003
100004
100004
100004
100004
100003
100002
100000
99998.8
99997
99994.8
99992.3
99989.6
99986.6
99983.3
99979.7
99975.8
99971.6
99967.1
99962.3
99957.2
99951.8
99946.2
99940.3
99934.1
99927.7
99921.1
99914.3
99907.3
99900.1
99892.8
99885.3
99877.6
99869.8
99861.9
99854
99845.9
99837.9
99829.7
99821.6
99813.4
99805.2
99797
99788.8
99780.6
99772.4
99764.3
99756.1
99748
99739.8
99731.6
99723.3
99715.1
99706.8
99698.4
99689.9
99681.4
99672.8
99664
99655.1
99646
99636.7
99627.2
99617.5
99607.5
99597.3
99586.7
99575.7
99564.4
99552.5
99540.2
99527.4
99513.9
99499.8
99485
99469.4
99452.8
99435.3
99416.8
99397.1
99376.2
99354.1
99330.9
99306.6
99281.9
99257.3
99234.1
99213.6
99198.2
99191.8
99201.1
99236.9
99319.8
99485.9
99798.5
100264
100875
99996.8
100000
100002
100003
100004
100004
100004
100003
100002
100001
100000
99998.4
99996.5
99994.4
99991.9
99989.2
99986.2
99982.9
99979.3
99975.3
99971.1
99966.6
99961.7
99956.6
99951.3
99945.6
99939.7
99933.5
99927.1
99920.5
99913.7
99906.7
99899.5
99892.2
99884.7
99877
99869.3
99861.4
99853.4
99845.4
99837.3
99829.2
99821.1
99812.9
99804.7
99796.6
99788.4
99780.2
99772.1
99764
99755.8
99747.7
99739.5
99731.4
99723.2
99715
99706.7
99698.4
99690
99681.5
99672.9
99664.2
99655.3
99646.3
99637.1
99627.6
99618
99608.1
99597.9
99587.4
99576.5
99565.2
99553.4
99541.1
99528.3
99514.9
99500.8
99485.9
99470.2
99453.5
99435.8
99417.1
99397.1
99375.9
99353.4
99329.6
99304.7
99279.1
99253.5
99229
99207
99189.2
99178.8
99180.9
99203.8
99262.9
99387
99634.3
100039
100661
99999.9
100002
100003
100003
100003
100003
100003
100003
100002
100001
99999.5
99997.9
99996
99993.8
99991.4
99988.6
99985.6
99982.3
99978.6
99974.7
99970.4
99965.9
99961.1
99956
99950.6
99944.9
99939
99932.8
99926.4
99919.8
99913
99906
99898.8
99891.5
99884
99876.3
99868.6
99860.7
99852.8
99844.7
99836.7
99828.6
99820.4
99812.3
99804.1
99795.9
99787.8
99779.6
99771.5
99763.4
99755.2
99747.1
99739
99730.9
99722.7
99714.6
99706.3
99698.1
99689.7
99681.3
99672.7
99664.1
99655.3
99646.3
99637.2
99627.8
99618.3
99608.4
99598.3
99587.8
99577
99565.8
99554.1
99541.9
99529.1
99515.7
99501.6
99486.7
99471
99454.2
99436.5
99417.5
99397.3
99375.8
99353
99328.7
99303.2
99276.7
99249.9
99223.9
99200
99179.6
99164.8
99159.2
99167.5
99200.1
99276.4
99442.7
99753.9
100365
100003
100003
100003
100003
100003
100003
100003
100002
100001
100000
99999
99997.4
99995.5
99993.3
99990.8
99988.1
99985.1
99981.7
99978.1
99974.1
99969.9
99965.3
99960.5
99955.3
99949.9
99944.3
99938.4
99932.2
99925.8
99919.2
99912.4
99905.4
99898.2
99890.8
99883.3
99875.7
99867.9
99860.1
99852.1
99844.1
99836
99827.9
99819.7
99811.5
99803.4
99795.2
99787.1
99778.9
99770.8
99762.6
99754.5
99746.4
99738.3
99730.2
99722.1
99713.9
99705.7
99697.5
99689.1
99680.8
99672.3
99663.6
99654.9
99646
99636.9
99627.6
99618.1
99608.3
99598.2
99587.8
99577.1
99565.9
99554.3
99542.2
99529.5
99516.1
99502
99487.2
99471.4
99454.6
99436.8
99417.7
99397.4
99375.6
99352.4
99327.7
99301.6
99274.3
99246.4
99218.8
99192.9
99170
99151.7
99138.7
99132.8
99139.6
99168.7
99246.5
99425.3
99975.7
100006
100005
100004
100003
100003
100003
100002
100002
100001
99999.8
99998.5
99996.8
99995
99992.8
99990.3
99987.6
99984.6
99981.3
99977.6
99973.7
99969.4
99964.9
99960
99954.9
99949.5
99943.8
99937.9
99931.8
99925.4
99918.8
99912
99905
99897.8
99890.5
99883
99875.3
99867.5
99859.6
99851.7
99843.6
99835.5
99827.4
99819.2
99811.1
99802.9
99794.7
99786.5
99778.3
99770.2
99762
99753.9
99745.7
99737.6
99729.4
99721.3
99713.1
99704.9
99696.6
99688.3
99679.9
99671.4
99662.7
99654
99645.1
99636
99626.8
99617.3
99607.6
99597.6
99587.2
99576.5
99565.4
99553.8
99541.8
99529.1
99515.8
99501.8
99486.9
99471.2
99454.4
99436.5
99417.4
99396.9
99375
99351.5
99326.5
99299.9
99271.9
99242.9
99213.9
99186.1
99160.9
99139.4
99121.2
99104
99089.6
99078.4
99073.1
99085.6
99480
100009
100006
100004
100003
100003
100003
100002
100001
100001
99999.5
99998.1
99996.5
99994.6
99992.4
99990
99987.3
99984.2
99980.9
99977.3
99973.4
99969.2
99964.6
99959.8
99954.7
99949.3
99943.7
99937.8
99931.7
99925.3
99918.7
99912
99905
99897.8
99890.5
99883
99875.3
99867.5
99859.7
99851.7
99843.6
99835.5
99827.4
99819.2
99811
99802.8
99794.6
99786.4
99778.2
99770
99761.8
99753.6
99745.5
99737.3
99729.1
99720.9
99712.7
99704.4
99696.1
99687.7
99679.2
99670.6
99662
99653.2
99644.2
99635.1
99625.8
99616.2
99606.4
99596.4
99586
99575.2
99564.1
99552.5
99540.4
99527.7
99514.4
99500.3
99485.5
99469.7
99452.9
99435
99415.8
99395.2
99373.2
99349.6
99324.4
99297.4
99268.9
99239.2
99209
99179.8
99152.9
99129.1
99108.7
99084.5
99055.7
99016.2
98947.5
98783.6
98848.6
100010
100007
100005
100004
100003
100003
100002
100002
100001
99999.6
99998.2
99996.6
99994.7
99992.5
99990.1
99987.3
99984.3
99981
99977.4
99973.5
99969.3
99964.8
99960
99954.9
99949.6
99943.9
99938.1
99932
99925.6
99919.1
99912.3
99905.4
99898.2
99890.9
99883.4
99875.8
99868
99860.2
99852.2
99844.2
99836.1
99827.9
99819.8
99811.6
99803.4
99795.1
99786.9
99778.7
99770.5
99762.3
99754.1
99745.9
99737.7
99729.5
99721.2
99713
99704.6
99696.3
99687.8
99679.3
99670.7
99662
99653.1
99644.1
99634.9
99625.6
99616
99606.1
99596
99585.5
99574.7
99563.5
99551.8
99539.6
99526.8
99513.4
99499.2
99484.2
99468.2
99451.3
99433.1
99413.8
99393
99370.7
99346.8
99321.2
99293.8
99264.7
99234.2
99202.9
99172.3
99143.7
99117.3
99094
99071.9
99038.7
98983.9
98878.3
98575.4
98000
100010
100009
100008
100007
100006
100006
100005
100004
100004
100002
100001
99999.1
99997.1
99994.8
99992.3
99989.4
99986.3
99982.9
99979.2
99975.2
99970.9
99966.3
99961.4
99956.3
99950.9
99945.2
99939.3
99933.1
99926.7
99920.1
99913.3
99906.3
99899.1
99891.8
99884.3
99876.6
99868.9
99861
99853.1
99845.1
99837
99828.8
99820.7
99812.5
99804.3
99796
99787.8
99779.6
99771.4
99763.2
99755
99746.8
99738.6
99730.3
99722.1
99713.8
99705.5
99697.1
99688.6
99680.1
99671.5
99662.8
99653.9
99644.9
99635.7
99626.3
99616.7
99606.8
99596.7
99586.2
99575.4
99564.1
99552.4
99540.2
99527.4
99514
99499.7
99484.7
99468.8
99451.8
99433.6
99414.2
99393.4
99371.1
99347.1
99321.4
99293.9
99264.6
99234
99202.7
99172.2
99143.7
99118.2
99092.9
99062.1
99020.8
98962.8
98846.9
98478.9
96863.6
100502
101721
102237
102530
102729
102877
102994
103088
103166
103230
103283
103328
103366
103397
103422
103442
103457
103468
103473
103472
100453
101436
102039
102417
102669
102849
102985
103092
103177
103247
103304
103352
103391
103422
103448
103468
103483
103492
103495
103493
100720
101459
101978
102355
102626
102824
102974
103091
103184
103259
103319
103369
103409
103442
103467
103486
103500
103508
103511
103508
100973
101574
102015
102358
102621
102822
102978
103100
103197
103275
103338
103389
103430
103462
103487
103506
103518
103525
103526
103521
101188
101697
102082
102393
102640
102836
102992
103116
103215
103295
103359
103411
103452
103483
103507
103524
103535
103540
103539
103532
101366
101809
102155
102440
102673
102861
103013
103136
103236
103316
103381
103432
103473
103504
103526
103542
103550
103553
103551
103540
101508
101904
102222
102488
102708
102889
103037
103158
103257
103337
103402
103453
103493
103523
103544
103558
103564
103565
103561
103546
101614
101978
102276
102528
102739
102915
103060
103179
103277
103357
103422
103473
103512
103541
103560
103572
103576
103575
103569
103550
101684
102028
102315
102559
102764
102936
103079
103198
103295
103375
103439
103489
103528
103556
103574
103583
103585
103582
103575
103552
101719
102055
102337
102577
102780
102950
103091
103209
103305
103384
103448
103499
103537
103564
103582
103590
103591
103587
103578
103554
101709
102045
102327
102568
102771
102941
103084
103202
103299
103379
103443
103494
103532
103560
103578
103587
103588
103584
103575
103553
101657
102003
102291
102537
102743
102917
103061
103181
103280
103361
103426
103478
103518
103547
103566
103577
103580
103578
103570
103548
101574
101941
102242
102496
102710
102888
103035
103157
103257
103339
103405
103458
103499
103530
103551
103563
103569
103568
103563
103544
101455
101856
102177
102446
102670
102854
103006
103130
103232
103315
103382
103435
103478
103510
103533
103548
103555
103557
103554
103539
101302
101750
102101
102390
102627
102820
102976
103103
103206
103290
103357
103412
103455
103488
103513
103530
103540
103544
103543
103532
101113
101629
102020
102336
102589
102790
102950
103079
103182
103265
103333
103387
103431
103465
103492
103511
103523
103529
103529
103522
100888
101497
101945
102295
102564
102772
102933
103060
103161
103243
103310
103364
103407
103442
103470
103490
103504
103512
103514
103510
100623
101373
101902
102288
102566
102771
102927
103049
103146
103224
103289
103341
103385
103420
103448
103469
103485
103494
103498
103495
100343
101344
101961
102349
102609
102795
102937
103048
103138
103212
103273
103323
103365
103399
103427
103449
103466
103476
103480
103477
100384
101630
102160
102462
102668
102823
102945
103043
103125
103193
103250
103297
103338
103371
103399
103421
103438
103449
103455
103454
103309
103307
103306
103305
103304
103304
103303
103303
103303
103303
103303
103303
103303
103303
103304
103304
103305
103306
103307
103309
103306
103304
103303
103303
103302
103302
103302
103302
103302
103302
103302
103302
103302
103302
103302
103302
103303
103303
103304
103306
103305
103303
103302
103302
103302
103303
103302
103302
103302
103302
103302
103302
103302
103302
103303
103302
103302
103302
103303
103305
103305
103303
103303
103303
103303
103303
103303
103303
103303
103303
103303
103303
103303
103303
103303
103303
103303
103303
103303
103305
103304
103303
103303
103302
103302
103302
103302
103302
103302
103302
103302
103302
103302
103302
103302
103302
103302
103303
103303
103304
103304
103302
103302
103302
103302
103302
103302
103302
103302
103302
103302
103302
103302
103302
103302
103302
103302
103302
103302
103304
103303
103302
103301
103301
103301
103301
103301
103301
103301
103301
103301
103301
103301
103301
103301
103301
103301
103301
103302
103303
103303
103301
103301
103301
103301
103301
103301
103300
103300
103300
103300
103300
103300
103301
103301
103301
103301
103301
103301
103303
103302
103300
103300
103300
103300
103300
103300
103300
103300
103300
103300
103300
103300
103300
103300
103300
103300
103300
103300
103302
103301
103300
103300
103299
103299
103299
103299
103299
103299
103299
103299
103299
103299
103299
103299
103299
103299
103300
103300
103301
103301
103299
103299
103299
103299
103299
103298
103298
103298
103298
103298
103298
103298
103298
103299
103299
103299
103299
103299
103301
103300
103298
103298
103298
103298
103298
103298
103298
103298
103298
103298
103298
103298
103298
103298
103298
103298
103298
103298
103300
103299
103298
103297
103297
103297
103297
103297
103297
103297
103297
103297
103297
103297
103297
103297
103297
103297
103297
103298
103299
103298
103297
103297
103297
103296
103296
103296
103296
103296
103296
103296
103296
103296
103296
103296
103296
103297
103297
103297
103298
103298
103296
103296
103296
103296
103296
103296
103296
103296
103296
103296
103296
103296
103296
103296
103296
103296
103296
103296
103298
103297
103295
103295
103295
103295
103295
103295
103295
103295
103295
103295
103295
103295
103295
103295
103295
103295
103295
103295
103297
103296
103294
103294
103294
103294
103294
103294
103294
103294
103294
103294
103294
103294
103294
103294
103294
103294
103294
103294
103296
103295
103294
103294
103293
103293
103293
103293
103293
103293
103293
103293
103293
103293
103293
103293
103293
103293
103294
103294
103295
103294
103293
103293
103293
103293
103293
103293
103293
103293
103293
103293
103293
103293
103293
103293
103293
103293
103293
103293
103294
103294
103292
103292
103292
103292
103292
103292
103292
103292
103292
103292
103292
103292
103292
103292
103292
103292
103292
103292
103294
103293
103291
103291
103291
103291
103291
103291
103291
103291
103291
103291
103291
103291
103291
103291
103291
103291
103291
103291
103293
103292
103290
103290
103290
103290
103290
103290
103290
103290
103290
103290
103290
103290
103290
103290
103290
103290
103290
103290
103292
103291
103290
103289
103289
103289
103289
103289
103289
103289
103289
103289
103289
103289
103289
103289
103289
103289
103289
103290
103291
103290
103289
103289
103289
103288
103289
103289
103289
103289
103289
103289
103289
103289
103289
103289
103288
103289
103289
103289
103290
103289
103288
103288
103288
103288
103288
103288
103288
103288
103288
103288
103288
103288
103288
103288
103288
103288
103288
103288
103289
103288
103287
103287
103287
103287
103287
103287
103287
103287
103287
103287
103287
103287
103287
103287
103287
103287
103287
103287
103288
103288
103286
103286
103286
103286
103286
103286
103286
103286
103287
103287
103286
103286
103286
103286
103286
103286
103286
103286
103288
103287
103285
103285
103285
103285
103285
103285
103286
103286
103286
103286
103286
103286
103285
103285
103285
103285
103285
103285
103287
103286
103284
103284
103284
103284
103284
103284
103284
103284
103284
103284
103284
103284
103284
103284
103284
103284
103284
103284
103286
103285
103283
103283
103283
103283
103283
103283
103283
103283
103283
103283
103283
103283
103283
103283
103283
103283
103283
103283
103285
103284
103282
103282
103282
103282
103282
103283
103283
103284
103284
103284
103284
103283
103283
103282
103282
103282
103282
103282
103284
103283
103281
103281
103281
103281
103281
103282
103282
103282
103282
103282
103282
103282
103282
103281
103281
103281
103281
103281
103283
103282
103280
103280
103280
103280
103280
103280
103279
103279
103279
103279
103279
103279
103280
103280
103280
103280
103280
103280
103282
103281
103279
103279
103279
103279
103279
103280
103280
103280
103280
103280
103280
103280
103280
103279
103279
103279
103279
103279
103281
103280
103278
103278
103278
103278
103278
103279
103279
103280
103280
103280
103280
103279
103279
103278
103278
103278
103278
103278
103280
103279
103277
103277
103277
103277
103277
103277
103277
103277
103277
103277
103277
103277
103277
103277
103277
103277
103277
103277
103279
103277
103276
103276
103276
103276
103276
103276
103276
103275
103275
103275
103276
103276
103276
103276
103276
103276
103276
103276
103277
103276
103275
103275
103275
103275
103275
103274
103275
103275
103276
103276
103275
103275
103275
103275
103275
103275
103275
103275
103276
103275
103274
103274
103274
103274
103275
103275
103276
103277
103277
103277
103277
103276
103275
103275
103274
103274
103274
103274
103275
103274
103273
103273
103273
103273
103273
103274
103274
103274
103274
103274
103274
103274
103274
103274
103273
103273
103273
103273
103274
103272
103271
103271
103271
103271
103271
103270
103270
103269
103269
103269
103270
103270
103271
103271
103271
103271
103271
103271
103272
103271
103270
103270
103270
103270
103270
103270
103270
103271
103271
103271
103271
103270
103270
103270
103270
103270
103270
103270
103271
103269
103268
103268
103268
103269
103269
103270
103271
103271
103271
103271
103271
103271
103270
103269
103269
103268
103268
103268
103270
103268
103267
103267
103267
103266
103266
103266
103265
103264
103264
103264
103264
103265
103266
103266
103266
103267
103267
103267
103268
103267
103265
103265
103265
103265
103265
103264
103264
103264
103264
103264
103264
103265
103265
103265
103265
103265
103265
103266
103267
103265
103264
103264
103264
103265
103265
103265
103265
103265
103266
103266
103267
103267
103266
103265
103265
103265
103264
103264
103265
103264
103263
103263
103263
103263
103263
103263
103262
103262
103261
103261
103261
103262
103262
103262
103263
103263
103263
103263
103264
103263
103262
103262
103262
103262
103262
103262
103262
103262
103261
103261
103260
103261
103261
103261
103262
103262
103262
103262
103263
103262
103261
103261
103261
103261
103261
103262
103262
103263
103263
103263
103263
103262
103262
103261
103261
103261
103261
103261
103262
103261
103260
103260
103260
103260
103260
103260
103261
103262
103262
103262
103261
103261
103260
103260
103260
103260
103260
103260
103261
103259
103259
103259
103259
103259
103259
103259
103258
103257
103257
103257
103258
103259
103260
103259
103259
103259
103259
103259
103260
103258
103258
103258
103258
103258
103258
103257
103257
103257
103256
103257
103258
103258
103258
103258
103258
103258
103258
103258
103259
103258
103257
103257
103257
103257
103257
103258
103258
103258
103258
103258
103257
103257
103257
103257
103257
103257
103257
103257
103258
103257
103256
103256
103256
103256
103256
103256
103256
103256
103255
103255
103255
103255
103256
103256
103256
103256
103256
103256
103257
103256
103255
103255
103256
103256
103256
103256
103256
103256
103256
103255
103255
103255
103255
103256
103256
103256
103256
103256
103256
103255
103254
103255
103255
103255
103255
103256
103256
103257
103256
103256
103256
103256
103257
103256
103255
103255
103255
103255
103255
103254
103253
103254
103254
103254
103254
103254
103253
103253
103253
103253
103254
103254
103254
103254
103254
103254
103254
103254
103254
103252
103252
103252
103252
103252
103252
103252
103252
103251
103251
103252
103252
103253
103253
103253
103253
103252
103252
103252
103253
103251
103251
103251
103251
103251
103251
103251
103252
103252
103252
103252
103251
103251
103250
103250
103251
103251
103251
103251
103251
103250
103250
103250
103250
103250
103250
103250
103249
103249
103250
103249
103249
103248
103248
103249
103250
103250
103250
103250
103250
103249
103249
103249
103249
103249
103248
103248
103248
103248
103247
103248
103249
103250
103250
103250
103249
103249
103249
103249
103249
103248
103248
103248
103248
103249
103249
103249
103248
103248
103249
103249
103249
103249
103249
103249
103249
103248
103248
103248
103248
103247
103247
103247
103247
103247
103248
103249
103249
103249
103249
103249
103250
103249
103249
103248
103248
103247
103247
103247
103247
103246
103246
103246
103246
103246
103247
103247
103247
103247
103246
103246
103245
103245
103245
103246
103246
103246
103246
103246
103246
103244
103244
103244
103245
103245
103245
103245
103245
103246
103245
103244
103243
103244
103245
103245
103244
103244
103244
103244
103244
103243
103243
103243
103243
103243
103242
103242
103242
103243
103244
103244
103244
103244
103243
103243
103243
103243
103243
103243
103243
103242
103242
103242
103242
103242
103241
103241
103240
103241
103242
103243
103243
103242
103242
103242
103242
103242
103242
103242
103242
103240
103240
103240
103240
103240
103241
103241
103241
103240
103240
103240
103240
103240
103240
103240
103240
103240
103240
103240
103240
103239
103239
103239
103239
103239
103239
103238
103239
103238
103237
103236
103236
103236
103237
103238
103238
103239
103239
103239
103239
103238
103238
103238
103238
103238
103238
103237
103237
103237
103237
103236
103236
103237
103237
103237
103238
103238
103238
103238
103238
103237
103237
103237
103237
103237
103237
103237
103236
103236
103236
103237
103237
103237
103236
103237
103237
103237
103237
103237
103237
103236
103236
103236
103236
103236
103236
103237
103237
103237
103237
103237
103237
103237
103237
103237
103236
103236
103236
103236
103236
103235
103235
103235
103235
103235
103235
103236
103236
103236
103237
103237
103237
103237
103237
103236
103236
103236
103235
103235
103235
103234
103234
103234
103234
103234
103234
103234
103234
103235
103236
103236
103236
103236
103235
103235
103234
103234
103234
103234
103234
103232
103232
103232
103232
103232
103232
103231
103231
103231
103231
103230
103231
103231
103231
103232
103232
103233
103233
103233
103233
103231
103231
103231
103231
103231
103231
103230
103229
103229
103228
103228
103228
103229
103230
103231
103231
103232
103232
103232
103232
103230
103230
103230
103230
103230
103230
103230
103231
103231
103231
103231
103232
103232
103232
103231
103231
103231
103231
103231
103231
103229
103229
103229
103229
103230
103230
103230
103231
103231
103231
103231
103231
103230
103230