/*--------------------------------*- C++ -*----------------------------------*\
| =========                 |                                                 |
| \\      /  F ield         | OpenFOAM: The Open Source CFD Toolbox           |
|  \\    /   O peration     | Version:  2.1.0                                 |
|   \\  /    A nd           | Web:      www.OpenFOAM.org                      |
|    \\/     M anipulation  |                                                 |
\*---------------------------------------------------------------------------*/
FoamFile
{
    version     2.0;
    format      ascii;
    class       surfaceScalarField;
    location    "0.09";
    object      phi;
}
// * * * * * * * * * * * * * * * * * * * * * * * * * * * * * * * * * * * * * //

dimensions      [0 3 -1 0 0 0 0];

internalField   nonuniform List<scalar> 
12460
(
-2.7678e-05
-3.80414e-08
-2.76431e-05
-3.49011e-08
-2.75989e-05
-4.41758e-08
-2.75446e-05
-5.42929e-08
-2.74804e-05
-6.42374e-08
-2.74065e-05
-7.39043e-08
-2.73232e-05
-8.32565e-08
-2.72308e-05
-9.23939e-08
-2.71295e-05
-1.01276e-07
-2.70194e-05
-1.10084e-07
-2.69006e-05
-1.1886e-07
-2.67729e-05
-1.27644e-07
-2.66365e-05
-1.36406e-07
-2.64914e-05
-1.4514e-07
-2.63376e-05
-1.53826e-07
-2.61751e-05
-1.62433e-07
-2.60042e-05
-1.70918e-07
-2.5825e-05
-1.79211e-07
-2.56378e-05
-1.87208e-07
-2.5443e-05
-1.94797e-07
-2.52411e-05
-2.01895e-07
-2.50327e-05
-2.08452e-07
-2.48182e-05
-2.14458e-07
-2.45983e-05
-2.19942e-07
-2.43733e-05
-2.2496e-07
-2.41437e-05
-2.2958e-07
-2.39098e-05
-2.33881e-07
-2.36719e-05
-2.37951e-07
-2.343e-05
-2.4186e-07
-2.31844e-05
-2.45626e-07
-2.29352e-05
-2.49186e-07
-2.26828e-05
-2.52405e-07
-2.24277e-05
-2.55139e-07
-2.21704e-05
-2.5728e-07
-2.19116e-05
-2.58754e-07
-2.16521e-05
-2.59518e-07
-2.13925e-05
-2.59579e-07
-2.11335e-05
-2.58988e-07
-2.08757e-05
-2.57839e-07
-2.06195e-05
-2.56235e-07
-2.03651e-05
-2.54342e-07
-2.01128e-05
-2.52332e-07
-1.98625e-05
-2.5032e-07
-1.96141e-05
-2.48381e-07
-1.93675e-05
-2.46589e-07
-1.91225e-05
-2.45011e-07
-1.88788e-05
-2.43711e-07
-1.86361e-05
-2.42735e-07
-1.83939e-05
-2.42136e-07
-1.8152e-05
-2.41963e-07
-1.79097e-05
-2.4226e-07
-1.76666e-05
-2.43054e-07
-1.74223e-05
-2.44323e-07
-1.71763e-05
-2.46053e-07
-1.6928e-05
-2.4827e-07
-1.6677e-05
-2.51002e-07
-1.64228e-05
-2.54222e-07
-1.61649e-05
-2.57857e-07
-1.5903e-05
-2.6189e-07
-1.56367e-05
-2.66346e-07
-1.53654e-05
-2.71246e-07
-1.50888e-05
-2.76631e-07
-1.48063e-05
-2.8249e-07
-1.45176e-05
-2.88701e-07
-1.42224e-05
-2.95236e-07
-1.39202e-05
-3.02148e-07
-1.36109e-05
-3.09331e-07
-1.32941e-05
-3.1677e-07
-1.29695e-05
-3.24586e-07
-1.26369e-05
-3.32647e-07
-1.22961e-05
-3.40832e-07
-1.19467e-05
-3.4932e-07
-1.15885e-05
-3.58215e-07
-1.12211e-05
-3.67425e-07
-1.08442e-05
-3.7694e-07
-1.04573e-05
-3.86848e-07
-1.006e-05
-3.97283e-07
-9.65153e-06
-4.08495e-07
-9.23069e-06
-4.20839e-07
-8.79597e-06
-4.34722e-07
-8.34532e-06
-4.50648e-07
-7.876e-06
-4.69325e-07
-7.38436e-06
-4.91637e-07
-6.86598e-06
-5.18381e-07
-6.31571e-06
-5.5027e-07
-5.72799e-06
-5.87717e-07
-5.09756e-06
-6.30435e-07
-4.42056e-06
-6.77001e-07
-3.69676e-06
-7.23792e-07
-2.93349e-06
-7.63278e-07
-2.15323e-06
-7.80252e-07
-1.40988e-06
-7.43356e-07
-7.97588e-07
-6.1229e-07
-4.2427e-07
-3.73318e-07
-3.46809e-07
-7.74608e-08
-6.04356e-07
2.57547e-07
-1.48908e-06
8.84721e-07
-3.69756e-06
2.20849e-06
-8.95475e-06
5.25719e-06
1.45416e-05
-2.34963e-05
-3.63255e-05
-8.40471e-08
-3.62343e-05
-1.26105e-07
-3.61135e-05
-1.64971e-07
-3.59711e-05
-1.96709e-07
-3.58117e-05
-2.23613e-07
-3.56379e-05
-2.47781e-07
-3.54509e-05
-2.70273e-07
-3.52514e-05
-2.91839e-07
-3.50402e-05
-3.12491e-07
-3.48179e-05
-3.32343e-07
-3.45855e-05
-3.51336e-07
-3.43436e-05
-3.69462e-07
-3.40933e-05
-3.86728e-07
-3.38352e-05
-4.0323e-07
-3.35701e-05
-4.1898e-07
-3.32986e-05
-4.33944e-07
-3.30214e-05
-4.48056e-07
-3.27394e-05
-4.61228e-07
-3.24533e-05
-4.73329e-07
-3.21639e-05
-4.84205e-07
-3.1872e-05
-4.93748e-07
-3.15786e-05
-5.01921e-07
-3.12843e-05
-5.08762e-07
-3.09898e-05
-5.14371e-07
-3.06959e-05
-5.18871e-07
-3.04031e-05
-5.22381e-07
-3.0112e-05
-5.25026e-07
-2.9823e-05
-5.26941e-07
-2.95366e-05
-5.28257e-07
-2.92531e-05
-5.29079e-07
-2.89729e-05
-5.29457e-07
-2.86959e-05
-5.29373e-07
-2.84223e-05
-5.28769e-07
-2.8152e-05
-5.27571e-07
-2.7885e-05
-5.25703e-07
-2.76214e-05
-5.23109e-07
-2.73612e-05
-5.1978e-07
-2.71045e-05
-5.15762e-07
-2.68511e-05
-5.11149e-07
-2.66013e-05
-5.06061e-07
-2.6355e-05
-5.00666e-07
-2.61122e-05
-4.9516e-07
-2.58728e-05
-4.8971e-07
-2.56367e-05
-4.84454e-07
-2.54038e-05
-4.79519e-07
-2.51738e-05
-4.75009e-07
-2.49465e-05
-4.71024e-07
-2.47216e-05
-4.6764e-07
-2.44988e-05
-4.64931e-07
-2.42778e-05
-4.6297e-07
-2.40582e-05
-4.61833e-07
-2.38397e-05
-4.61564e-07
-2.36219e-05
-4.62122e-07
-2.34045e-05
-4.6347e-07
-2.31871e-05
-4.65652e-07
-2.29694e-05
-4.68717e-07
-2.2751e-05
-4.72623e-07
-2.25316e-05
-4.77229e-07
-2.2311e-05
-4.82455e-07
-2.2089e-05
-4.88324e-07
-2.18655e-05
-4.94831e-07
-2.16401e-05
-5.01994e-07
-2.14128e-05
-5.09805e-07
-2.11834e-05
-5.18058e-07
-2.0952e-05
-5.26691e-07
-2.07183e-05
-5.35789e-07
-2.04825e-05
-5.45141e-07
-2.02447e-05
-5.54632e-07
-2.00047e-05
-5.64509e-07
-1.97625e-05
-5.74854e-07
-1.95179e-05
-5.85501e-07
-1.92707e-05
-5.96454e-07
-1.90211e-05
-6.07805e-07
-1.8769e-05
-6.19575e-07
-1.85141e-05
-6.31858e-07
-1.82561e-05
-6.44852e-07
-1.79945e-05
-6.5886e-07
-1.77287e-05
-6.74307e-07
-1.74578e-05
-6.91709e-07
-1.71808e-05
-7.11702e-07
-1.68964e-05
-7.35095e-07
-1.66028e-05
-7.6292e-07
-1.6298e-05
-7.96448e-07
-1.59795e-05
-8.36844e-07
-1.56446e-05
-8.85212e-07
-1.52902e-05
-9.4209e-07
-1.49137e-05
-1.00689e-06
-1.45135e-05
-1.07722e-06
-1.409e-05
-1.14735e-06
-1.36473e-05
-1.20597e-06
-1.31958e-05
-1.23174e-06
-1.27523e-05
-1.18685e-06
-1.2349e-05
-1.01562e-06
-1.20566e-05
-6.65634e-07
-1.20965e-05
-3.75674e-08
-1.25682e-05
7.29232e-07
-1.37975e-05
2.11402e-06
-1.62839e-05
4.69482e-06
-2.10127e-05
9.98603e-06
2.48714e-05
-3.13426e-05
-3.87216e-05
-1.29539e-07
-3.86131e-05
-2.34547e-07
-3.84758e-05
-3.02295e-07
-3.83206e-05
-3.51944e-07
-3.81525e-05
-3.91703e-07
-3.79743e-05
-4.26001e-07
-3.77877e-05
-4.5685e-07
-3.75939e-05
-4.85594e-07
-3.73938e-05
-5.12592e-07
-3.7188e-05
-5.38178e-07
-3.69771e-05
-5.62268e-07
-3.67617e-05
-5.84849e-07
-3.65425e-05
-6.05889e-07
-3.63202e-05
-6.25563e-07
-3.60952e-05
-6.43929e-07
-3.58682e-05
-6.60978e-07
-3.56396e-05
-6.76681e-07
-3.54098e-05
-6.91014e-07
-3.51792e-05
-7.0392e-07
-3.49481e-05
-7.1533e-07
-3.47166e-05
-7.25193e-07
-3.4485e-05
-7.3349e-07
-3.42536e-05
-7.4024e-07
-3.40224e-05
-7.45489e-07
-3.3792e-05
-7.49301e-07
-3.35627e-05
-7.51747e-07
-3.33348e-05
-7.52917e-07
-3.31088e-05
-7.52944e-07
-3.2885e-05
-7.51994e-07
-3.26638e-05
-7.50256e-07
-3.24454e-05
-7.47891e-07
-3.22298e-05
-7.44987e-07
-3.2017e-05
-7.41562e-07
-3.1807e-05
-7.37603e-07
-3.15996e-05
-7.33071e-07
-3.13948e-05
-7.27915e-07
-3.11925e-05
-7.22106e-07
-3.09926e-05
-7.1565e-07
-3.07951e-05
-7.08596e-07
-3.06002e-05
-7.0103e-07
-3.04078e-05
-6.93078e-07
-3.0218e-05
-6.84905e-07
-3.0031e-05
-6.76676e-07
-2.98469e-05
-6.68555e-07
-2.96658e-05
-6.60707e-07
-2.94875e-05
-6.53268e-07
-2.93122e-05
-6.46356e-07
-2.91397e-05
-6.40071e-07
-2.89702e-05
-6.34498e-07
-2.88034e-05
-6.29723e-07
-2.86394e-05
-6.25852e-07
-2.8478e-05
-6.2296e-07
-2.83191e-05
-6.20978e-07
-2.81628e-05
-6.19819e-07
-2.80089e-05
-6.1953e-07
-2.78575e-05
-6.20163e-07
-2.77084e-05
-6.21665e-07
-2.75618e-05
-6.23867e-07
-2.74176e-05
-6.26644e-07
-2.72759e-05
-6.30005e-07
-2.71369e-05
-6.33857e-07
-2.70008e-05
-6.38075e-07
-2.68679e-05
-6.42682e-07
-2.67384e-05
-6.47583e-07
-2.66125e-05
-6.52595e-07
-2.64906e-05
-6.57646e-07
-2.63732e-05
-6.62595e-07
-2.62606e-05
-6.67258e-07
-2.61533e-05
-6.71736e-07
-2.60519e-05
-6.76268e-07
-2.59566e-05
-6.80776e-07
-2.58681e-05
-6.85014e-07
-2.57869e-05
-6.88965e-07
-2.57137e-05
-6.92793e-07
-2.56488e-05
-6.96747e-07
-2.55926e-05
-7.01106e-07
-2.55451e-05
-7.0628e-07
-2.55066e-05
-7.12834e-07
-2.54769e-05
-7.21465e-07
-2.54555e-05
-7.33079e-07
-2.54418e-05
-7.48791e-07
-2.54348e-05
-7.69885e-07
-2.54333e-05
-7.97925e-07
-2.5436e-05
-8.34234e-07
-2.54408e-05
-8.80339e-07
-2.54459e-05
-9.37057e-07
-2.54491e-05
-1.00367e-06
-2.54492e-05
-1.07716e-06
-2.54462e-05
-1.15031e-06
-2.54424e-05
-1.2098e-06
-2.54422e-05
-1.23187e-06
-2.54524e-05
-1.17673e-06
-2.54826e-05
-9.85381e-07
-2.55685e-05
-5.79765e-07
-2.57161e-05
1.10087e-07
-2.61492e-05
1.16234e-06
-2.70485e-05
3.01335e-06
-2.87747e-05
6.42096e-06
-3.20154e-05
1.32268e-05
2.91161e-05
-3.62601e-05
-3.96219e-05
-1.67053e-07
-3.95473e-05
-3.09119e-07
-3.9453e-05
-3.96615e-07
-3.93468e-05
-4.58151e-07
-3.92324e-05
-5.06137e-07
-3.91119e-05
-5.46442e-07
-3.89868e-05
-5.81949e-07
-3.88581e-05
-6.14301e-07
-3.87266e-05
-6.44132e-07
-3.85929e-05
-6.71891e-07
-3.84574e-05
-6.97701e-07
-3.83208e-05
-7.21536e-07
-3.81833e-05
-7.43393e-07
-3.80452e-05
-7.63571e-07
-3.79069e-05
-7.82234e-07
-3.77685e-05
-7.99409e-07
-3.76301e-05
-8.15128e-07
-3.74917e-05
-8.29411e-07
-3.73534e-05
-8.42224e-07
-3.72152e-05
-8.53535e-07
-3.7077e-05
-8.63332e-07
-3.69389e-05
-8.71619e-07
-3.68007e-05
-8.78393e-07
-3.66626e-05
-8.8363e-07
-3.65246e-05
-8.87298e-07
-3.6387e-05
-8.8938e-07
-3.625e-05
-8.89915e-07
-3.61139e-05
-8.89016e-07
-3.5979e-05
-8.86859e-07
-3.58456e-05
-8.83649e-07
-3.57139e-05
-8.79593e-07
-3.55841e-05
-8.74832e-07
-3.54562e-05
-8.69434e-07
-3.53304e-05
-8.63429e-07
-3.52066e-05
-8.56818e-07
-3.5085e-05
-8.49574e-07
-3.49654e-05
-8.41674e-07
-3.4848e-05
-8.33105e-07
-3.47327e-05
-8.23879e-07
-3.46197e-05
-8.14044e-07
-3.4509e-05
-8.03697e-07
-3.4401e-05
-7.92977e-07
-3.42956e-05
-7.82013e-07
-3.41932e-05
-7.70948e-07
-3.4094e-05
-7.59955e-07
-3.39981e-05
-7.49179e-07
-3.39057e-05
-7.38735e-07
-3.38171e-05
-7.28724e-07
-3.37323e-05
-7.19222e-07
-3.36517e-05
-7.10304e-07
-3.35755e-05
-7.02103e-07
-3.35037e-05
-6.94738e-07
-3.34366e-05
-6.88116e-07
-3.33743e-05
-6.82074e-07
-3.33172e-05
-6.76661e-07
-3.32655e-05
-6.71879e-07
-3.32195e-05
-6.67622e-07
-3.31795e-05
-6.6385e-07
-3.31457e-05
-6.60479e-07
-3.31183e-05
-6.5737e-07
-3.30978e-05
-6.54417e-07
-3.30843e-05
-6.51513e-07
-3.30785e-05
-6.48554e-07
-3.30806e-05
-6.45468e-07
-3.3091e-05
-6.42166e-07
-3.31101e-05
-6.38545e-07
-3.31382e-05
-6.34513e-07
-3.31756e-05
-6.29828e-07
-3.32228e-05
-6.24514e-07
-3.32802e-05
-6.18926e-07
-3.33478e-05
-6.1315e-07
-3.34258e-05
-6.07032e-07
-3.35141e-05
-6.00653e-07
-3.36126e-05
-5.94263e-07
-3.37212e-05
-5.88222e-07
-3.38393e-05
-5.8293e-07
-3.39666e-05
-5.79037e-07
-3.41021e-05
-5.77291e-07
-3.42449e-05
-5.78644e-07
-3.43938e-05
-5.84191e-07
-3.45474e-05
-5.95186e-07
-3.47043e-05
-6.13015e-07
-3.48629e-05
-6.39354e-07
-3.50215e-05
-6.75631e-07
-3.51789e-05
-7.22918e-07
-3.53342e-05
-7.81775e-07
-3.54866e-05
-8.51244e-07
-3.56359e-05
-9.27827e-07
-3.57825e-05
-1.00379e-06
-3.59272e-05
-1.06504e-06
-3.60714e-05
-1.08769e-06
-3.62139e-05
-1.03423e-06
-3.63531e-05
-8.46185e-07
-3.6486e-05
-4.469e-07
-3.66169e-05
2.41058e-07
-3.68616e-05
1.40702e-06
-3.73355e-05
3.48719e-06
-3.82002e-05
7.2857e-06
-3.96257e-05
1.46523e-05
2.90318e-05
-3.95413e-05
-4.01968e-05
-1.89562e-07
-4.01652e-05
-3.40635e-07
-4.01264e-05
-4.35504e-07
-4.0083e-05
-5.01547e-07
-4.00367e-05
-5.52447e-07
-3.99887e-05
-5.94351e-07
-3.994e-05
-6.30703e-07
-3.98909e-05
-6.63362e-07
-3.98421e-05
-6.92996e-07
-3.97939e-05
-7.20081e-07
-3.97466e-05
-7.44988e-07
-3.97005e-05
-7.67667e-07
-3.96557e-05
-7.88165e-07
-3.96123e-05
-8.07003e-07
-3.957e-05
-8.24454e-07
-3.95289e-05
-8.40539e-07
-3.94887e-05
-8.55329e-07
-3.94493e-05
-8.68833e-07
-3.94106e-05
-8.80951e-07
-3.93725e-05
-8.9158e-07
-3.93352e-05
-9.00678e-07
-3.92985e-05
-9.08256e-07
-3.92626e-05
-9.14339e-07
-3.92273e-05
-9.18927e-07
-3.91926e-05
-9.21979e-07
-3.91585e-05
-9.2345e-07
-3.91251e-05
-9.23342e-07
-3.90924e-05
-9.21745e-07
-3.90604e-05
-9.18811e-07
-3.90294e-05
-9.14707e-07
-3.89994e-05
-9.09598e-07
-3.89706e-05
-9.03616e-07
-3.89432e-05
-8.96844e-07
-3.89173e-05
-8.89326e-07
-3.8893e-05
-8.81072e-07
-3.88705e-05
-8.72061e-07
-3.88499e-05
-8.62273e-07
-3.88313e-05
-8.51691e-07
-3.88149e-05
-8.40315e-07
-3.88008e-05
-8.28174e-07
-3.87891e-05
-8.15347e-07
-3.87801e-05
-8.01964e-07
-3.8774e-05
-7.88132e-07
-3.8771e-05
-7.73959e-07
-3.87714e-05
-7.59612e-07
-3.87753e-05
-7.45234e-07
-3.87831e-05
-7.30935e-07
-3.8795e-05
-7.16816e-07
-3.88113e-05
-7.02932e-07
-3.88323e-05
-6.89327e-07
-3.88582e-05
-6.76146e-07
-3.88894e-05
-6.63548e-07
-3.8926e-05
-6.51536e-07
-3.89681e-05
-6.39948e-07
-3.9016e-05
-6.28803e-07
-3.90697e-05
-6.18173e-07
-3.91294e-05
-6.07909e-07
-3.91953e-05
-5.97969e-07
-3.92674e-05
-5.88406e-07
-3.93456e-05
-5.79142e-07
-3.94299e-05
-5.70053e-07
-3.95204e-05
-5.61068e-07
-3.96169e-05
-5.5204e-07
-3.97195e-05
-5.4286e-07
-3.98281e-05
-5.33594e-07
-3.99424e-05
-5.24186e-07
-4.00625e-05
-5.14451e-07
-4.01882e-05
-5.04154e-07
-4.03196e-05
-4.93133e-07
-4.0457e-05
-4.81459e-07
-4.06008e-05
-4.69347e-07
-4.07509e-05
-4.57001e-07
-4.09069e-05
-4.44638e-07
-4.10686e-05
-4.32541e-07
-4.12358e-05
-4.21031e-07
-4.14082e-05
-4.10525e-07
-4.15852e-05
-4.02004e-07
-4.17663e-05
-3.96196e-07
-4.19509e-05
-3.94042e-07
-4.21385e-05
-3.96647e-07
-4.23283e-05
-4.05341e-07
-4.25197e-05
-4.2162e-07
-4.2712e-05
-4.47108e-07
-4.29042e-05
-4.83365e-07
-4.30957e-05
-5.31442e-07
-4.32858e-05
-5.91669e-07
-4.3474e-05
-6.63001e-07
-4.36601e-05
-7.41748e-07
-4.38437e-05
-8.20185e-07
-4.40239e-05
-8.84823e-07
-4.41983e-05
-9.13349e-07
-4.43605e-05
-8.72013e-07
-4.44968e-05
-7.09932e-07
-4.45875e-05
-3.56206e-07
-4.46326e-05
2.86221e-07
-4.46644e-05
1.43879e-06
-4.46952e-05
3.518e-06
-4.47215e-05
7.31198e-06
-4.44294e-05
1.43601e-05
2.62191e-05
-4.16167e-05
-4.06898e-05
-1.93986e-07
-4.07005e-05
-3.29938e-07
-4.07159e-05
-4.20092e-07
-4.07341e-05
-4.8336e-07
-4.07544e-05
-5.3213e-07
-4.07772e-05
-5.71581e-07
-4.08026e-05
-6.05286e-07
-4.08307e-05
-6.35268e-07
-4.08617e-05
-6.61992e-07
-4.08958e-05
-6.85934e-07
-4.09332e-05
-7.07613e-07
-4.09738e-05
-7.2705e-07
-4.10177e-05
-7.44339e-07
-4.10647e-05
-7.5997e-07
-4.11148e-05
-7.74367e-07
-4.11676e-05
-7.87729e-07
-4.12228e-05
-8.00144e-07
-4.12801e-05
-8.11543e-07
-4.13393e-05
-8.21748e-07
-4.14002e-05
-8.30597e-07
-4.14629e-05
-8.38017e-07
-4.15271e-05
-8.44033e-07
-4.15928e-05
-8.48698e-07
-4.16597e-05
-8.52038e-07
-4.17276e-05
-8.54017e-07
-4.17965e-05
-8.54573e-07
-4.18662e-05
-8.53674e-07
-4.19365e-05
-8.51371e-07
-4.20076e-05
-8.47787e-07
-4.20792e-05
-8.43054e-07
-4.21515e-05
-8.37284e-07
-4.22246e-05
-8.30557e-07
-4.22985e-05
-8.22923e-07
-4.23734e-05
-8.14421e-07
-4.24494e-05
-8.05074e-07
-4.25266e-05
-7.9487e-07
-4.26051e-05
-7.8379e-07
-4.2685e-05
-7.71828e-07
-4.27663e-05
-7.58998e-07
-4.28491e-05
-7.45336e-07
-4.29335e-05
-7.30924e-07
-4.30196e-05
-7.15914e-07
-4.31073e-05
-7.00396e-07
-4.31968e-05
-6.84455e-07
-4.32882e-05
-6.6827e-07
-4.33814e-05
-6.51969e-07
-4.34767e-05
-6.35668e-07
-4.3574e-05
-6.19524e-07
-4.36734e-05
-6.03571e-07
-4.37749e-05
-5.87765e-07
-4.38789e-05
-5.72144e-07
-4.39857e-05
-5.5681e-07
-4.40953e-05
-5.41877e-07
-4.42079e-05
-5.27401e-07
-4.43232e-05
-5.13432e-07
-4.44414e-05
-4.99977e-07
-4.45624e-05
-4.86915e-07
-4.46862e-05
-4.74177e-07
-4.48128e-05
-4.61827e-07
-4.49421e-05
-4.49871e-07
-4.5074e-05
-4.3816e-07
-4.52085e-05
-4.26565e-07
-4.53455e-05
-4.14999e-07
-4.5485e-05
-4.03368e-07
-4.56269e-05
-3.91654e-07
-4.57714e-05
-3.79768e-07
-4.59183e-05
-3.6747e-07
-4.60679e-05
-3.5456e-07
-4.62199e-05
-3.41131e-07
-4.63741e-05
-3.27291e-07
-4.65305e-05
-3.12987e-07
-4.66891e-05
-2.98393e-07
-4.68499e-05
-2.83757e-07
-4.70131e-05
-2.69435e-07
-4.71783e-05
-2.55758e-07
-4.7346e-05
-2.42887e-07
-4.75157e-05
-2.32291e-07
-4.76874e-05
-2.24517e-07
-4.78609e-05
-2.20496e-07
-4.80361e-05
-2.21421e-07
-4.82128e-05
-2.287e-07
-4.83905e-05
-2.43861e-07
-4.85693e-05
-2.68362e-07
-4.87488e-05
-3.03865e-07
-4.89287e-05
-3.51549e-07
-4.91088e-05
-4.11544e-07
-4.92888e-05
-4.82973e-07
-4.94683e-05
-5.62283e-07
-4.96463e-05
-6.42154e-07
-4.98206e-05
-7.10538e-07
-4.99859e-05
-7.4806e-07
-5.01321e-05
-7.25841e-07
-5.02373e-05
-6.04712e-07
-5.02731e-05
-3.20411e-07
-5.0219e-05
2.32135e-07
-5.0045e-05
1.26477e-06
-4.96725e-05
3.14558e-06
-4.89391e-05
6.57856e-06
-4.72581e-05
1.26791e-05
2.17707e-05
-4.28096e-05
-4.1113e-05
-1.79172e-07
-4.11616e-05
-2.81345e-07
-4.12249e-05
-3.56734e-07
-4.12975e-05
-4.10803e-07
-4.13766e-05
-4.53075e-07
-4.14614e-05
-4.86752e-07
-4.15517e-05
-5.14997e-07
-4.1647e-05
-5.39891e-07
-4.17472e-05
-5.6184e-07
-4.18522e-05
-5.80945e-07
-4.19624e-05
-5.97383e-07
-4.2078e-05
-6.1147e-07
-4.21986e-05
-6.23693e-07
-4.23243e-05
-6.34362e-07
-4.24547e-05
-6.43884e-07
-4.25897e-05
-6.52759e-07
-4.27286e-05
-6.61203e-07
-4.28711e-05
-6.69105e-07
-4.30166e-05
-6.76217e-07
-4.31649e-05
-6.82309e-07
-4.33156e-05
-6.87281e-07
-4.34685e-05
-6.91171e-07
-4.36231e-05
-6.94079e-07
-4.37791e-05
-6.96062e-07
-4.3936e-05
-6.97082e-07
-4.40936e-05
-6.97031e-07
-4.42514e-05
-6.95803e-07
-4.44094e-05
-6.93367e-07
-4.45675e-05
-6.89781e-07
-4.47254e-05
-6.85138e-07
-4.48831e-05
-6.79514e-07
-4.50407e-05
-6.72962e-07
-4.51982e-05
-6.655e-07
-4.53554e-05
-6.57146e-07
-4.55126e-05
-6.47916e-07
-4.56697e-05
-6.37804e-07
-4.58266e-05
-6.26805e-07
-4.59835e-05
-6.14932e-07
-4.61403e-05
-6.02223e-07
-4.62969e-05
-5.88729e-07
-4.64533e-05
-5.74532e-07
-4.66094e-05
-5.59775e-07
-4.67653e-05
-5.44572e-07
-4.69207e-05
-5.29012e-07
-4.70757e-05
-5.13257e-07
-4.72303e-05
-4.97419e-07
-4.73844e-05
-4.81575e-07
-4.7538e-05
-4.65854e-07
-4.76912e-05
-4.50363e-07
-4.78438e-05
-4.35195e-07
-4.79956e-05
-4.20388e-07
-4.81465e-05
-4.05925e-07
-4.82965e-05
-3.91795e-07
-4.84458e-05
-3.78148e-07
-4.85941e-05
-3.65106e-07
-4.87415e-05
-3.52561e-07
-4.8888e-05
-3.40412e-07
-4.90336e-05
-3.28663e-07
-4.91781e-05
-3.17308e-07
-4.93217e-05
-3.06276e-07
-4.94644e-05
-2.95458e-07
-4.96062e-05
-2.84735e-07
-4.97472e-05
-2.73986e-07
-4.98875e-05
-2.63101e-07
-5.00271e-05
-2.52021e-07
-5.01662e-05
-2.40638e-07
-5.0305e-05
-2.28724e-07
-5.04435e-05
-2.16066e-07
-5.05817e-05
-2.02866e-07
-5.07195e-05
-1.89514e-07
-5.08568e-05
-1.75668e-07
-5.09939e-05
-1.61334e-07
-5.11309e-05
-1.46729e-07
-5.12682e-05
-1.32182e-07
-5.14057e-05
-1.18263e-07
-5.15444e-05
-1.04174e-07
-5.16841e-05
-9.25506e-08
-5.18252e-05
-8.34635e-08
-5.19678e-05
-7.78567e-08
-5.21123e-05
-7.69683e-08
-5.22588e-05
-8.22112e-08
-5.24075e-05
-9.51289e-08
-5.25589e-05
-1.1693e-07
-5.27132e-05
-1.49567e-07
-5.28704e-05
-1.9436e-07
-5.3031e-05
-2.50971e-07
-5.31947e-05
-3.19241e-07
-5.33606e-05
-3.96362e-07
-5.3527e-05
-4.75771e-07
-5.36901e-05
-5.47509e-07
-5.38421e-05
-5.96001e-07
-5.39694e-05
-5.98582e-07
-5.40474e-05
-5.26708e-07
-5.40373e-05
-3.30487e-07
-5.38945e-05
8.93072e-08
-5.35443e-05
9.14568e-07
-5.28312e-05
2.4325e-06
-5.14634e-05
5.21081e-06
-4.87581e-05
9.97374e-06
1.64083e-05
-4.33957e-05
-4.14462e-05
-1.41146e-07
-4.15253e-05
-2.02314e-07
-4.16264e-05
-2.55597e-07
-4.17423e-05
-2.94875e-07
-4.18692e-05
-3.2618e-07
-4.2005e-05
-3.50994e-07
-4.21487e-05
-3.7125e-07
-4.23004e-05
-3.88243e-07
-4.24592e-05
-4.02976e-07
-4.26246e-05
-4.15572e-07
-4.27961e-05
-4.25875e-07
-4.29734e-05
-4.34231e-07
-4.31558e-05
-4.41232e-07
-4.3343e-05
-4.47149e-07
-4.35347e-05
-4.52276e-07
-4.37304e-05
-4.57025e-07
-4.393e-05
-4.61593e-07
-4.41332e-05
-4.65875e-07
-4.43398e-05
-4.69647e-07
-4.45494e-05
-4.72725e-07
-4.47616e-05
-4.75063e-07
-4.4976e-05
-4.76733e-07
-4.51923e-05
-4.77848e-07
-4.54099e-05
-4.78446e-07
-4.56285e-05
-4.78459e-07
-4.58478e-05
-4.77753e-07
-4.60674e-05
-4.76206e-07
-4.6287e-05
-4.73773e-07
-4.65063e-05
-4.70495e-07
-4.6725e-05
-4.66433e-07
-4.69429e-05
-4.61626e-07
-4.71597e-05
-4.56088e-07
-4.73754e-05
-4.49814e-07
-4.75898e-05
-4.42805e-07
-4.78026e-05
-4.35077e-07
-4.80138e-05
-4.26636e-07
-4.82231e-05
-4.17484e-07
-4.84304e-05
-4.07643e-07
-4.86354e-05
-3.97155e-07
-4.88381e-05
-3.86104e-07
-4.9038e-05
-3.74576e-07
-4.92351e-05
-3.62648e-07
-4.94293e-05
-3.50432e-07
-4.96202e-05
-3.38069e-07
-4.98078e-05
-3.25668e-07
-4.99919e-05
-3.13304e-07
-5.01725e-05
-3.01054e-07
-5.03493e-05
-2.88991e-07
-5.05225e-05
-2.77226e-07
-5.06917e-05
-2.65928e-07
-5.0857e-05
-2.55161e-07
-5.1018e-05
-2.44837e-07
-5.1175e-05
-2.34855e-07
-5.13278e-05
-2.25307e-07
-5.14767e-05
-2.16267e-07
-5.16216e-05
-2.07595e-07
-5.17628e-05
-1.99203e-07
-5.19004e-05
-1.91073e-07
-5.20346e-05
-1.83144e-07
-5.21656e-05
-1.7531e-07
-5.22936e-05
-1.6746e-07
-5.24188e-05
-1.5946e-07
-5.25416e-05
-1.5117e-07
-5.26623e-05
-1.42481e-07
-5.2781e-05
-1.33306e-07
-5.28981e-05
-1.23518e-07
-5.30139e-05
-1.12914e-07
-5.31286e-05
-1.01349e-07
-5.32429e-05
-8.85501e-08
-5.3357e-05
-7.54361e-08
-5.34712e-05
-6.14628e-08
-5.35859e-05
-4.66597e-08
-5.37014e-05
-3.12601e-08
-5.3818e-05
-1.55525e-08
-5.39352e-05
-1.04173e-09
-5.40555e-05
1.60789e-08
-5.41774e-05
2.94178e-08
-5.43015e-05
4.06006e-08
-5.44281e-05
4.87097e-08
-5.45576e-05
5.25178e-08
-5.46904e-05
5.06326e-08
-5.48271e-05
4.15629e-08
-5.49678e-05
2.38025e-08
-5.51133e-05
-4.05541e-09
-5.52639e-05
-4.38286e-08
-5.54195e-05
-9.52916e-08
-5.55798e-05
-1.58951e-07
-5.57429e-05
-2.33309e-07
-5.59065e-05
-3.12212e-07
-5.60654e-05
-3.88604e-07
-5.62104e-05
-4.50964e-07
-5.63251e-05
-4.83924e-07
-5.63848e-05
-4.66994e-07
-5.63436e-05
-3.71646e-07
-5.61357e-05
-1.1856e-07
-5.56454e-05
4.24245e-07
-5.46693e-05
1.45637e-06
-5.28206e-05
3.36208e-06
-4.94165e-05
6.56968e-06
1.05929e-05
-4.36011e-05
-4.16621e-05
-7.30838e-08
-4.17647e-05
-9.97043e-08
-4.18937e-05
-1.26589e-07
-4.20421e-05
-1.46532e-07
-4.22064e-05
-1.61879e-07
-4.23833e-05
-1.7407e-07
-4.25704e-05
-1.84086e-07
-4.27666e-05
-1.92075e-07
-4.29708e-05
-1.98839e-07
-4.31818e-05
-2.0452e-07
-4.33986e-05
-2.09038e-07
-4.36202e-05
-2.12624e-07
-4.38459e-05
-2.15581e-07
-4.4075e-05
-2.18038e-07
-4.43072e-05
-2.20118e-07
-4.45422e-05
-2.21999e-07
-4.478e-05
-2.23751e-07
-4.50206e-05
-2.253e-07
-4.52637e-05
-2.26523e-07
-4.55091e-05
-2.27339e-07
-4.57564e-05
-2.27757e-07
-4.60053e-05
-2.27843e-07
-4.62555e-05
-2.2767e-07
-4.65067e-05
-2.27252e-07
-4.67586e-05
-2.26537e-07
-4.70109e-05
-2.25446e-07
-4.72632e-05
-2.23923e-07
-4.7515e-05
-2.21955e-07
-4.77659e-05
-2.1958e-07
-4.80155e-05
-2.16831e-07
-4.82634e-05
-2.13717e-07
-4.85093e-05
-2.10229e-07
-4.87528e-05
-2.06353e-07
-4.89935e-05
-2.02082e-07
-4.92311e-05
-1.97428e-07
-4.94654e-05
-1.92401e-07
-4.96958e-05
-1.87014e-07
-4.99222e-05
-1.81283e-07
-5.01441e-05
-1.75237e-07
-5.03613e-05
-1.68932e-07
-5.05734e-05
-1.62426e-07
-5.07803e-05
-1.5576e-07
-5.09817e-05
-1.49018e-07
-5.11775e-05
-1.42303e-07
-5.13675e-05
-1.35659e-07
-5.15517e-05
-1.29122e-07
-5.173e-05
-1.22746e-07
-5.19024e-05
-1.16574e-07
-5.2069e-05
-1.10658e-07
-5.22298e-05
-1.05079e-07
-5.23852e-05
-9.98436e-08
-5.25351e-05
-9.4851e-08
-5.268e-05
-9.0034e-08
-5.28198e-05
-8.54452e-08
-5.2955e-05
-8.10669e-08
-5.30859e-05
-7.67661e-08
-5.32126e-05
-7.24733e-08
-5.33355e-05
-6.81351e-08
-5.3455e-05
-6.36596e-08
-5.35714e-05
-5.89342e-08
-5.3685e-05
-5.38385e-08
-5.37962e-05
-4.82352e-08
-5.39054e-05
-4.19943e-08
-5.40129e-05
-3.50059e-08
-5.4119e-05
-2.71683e-08
-5.42241e-05
-1.84007e-08
-5.43285e-05
-8.53424e-09
-5.44321e-05
2.23359e-09
-5.45365e-05
1.58348e-08
-5.4641e-05
2.91215e-08
-5.47462e-05
4.3729e-08
-5.48524e-05
5.95043e-08
-5.49599e-05
7.62385e-08
-5.50688e-05
9.33269e-08
-5.51805e-05
1.10649e-07
-5.52935e-05
1.29146e-07
-5.54099e-05
1.45777e-07
-5.55298e-05
1.60478e-07
-5.56535e-05
1.72392e-07
-5.57813e-05
1.8034e-07
-5.59136e-05
1.82937e-07
-5.60507e-05
1.78682e-07
-5.61926e-05
1.65728e-07
-5.63396e-05
1.42938e-07
-5.64926e-05
1.09129e-07
-5.66509e-05
6.30132e-08
-5.68146e-05
4.77204e-09
-5.69821e-05
-6.5761e-08
-5.71503e-05
-1.44043e-07
-5.73128e-05
-2.26165e-07
-5.74593e-05
-3.04423e-07
-5.75726e-05
-3.70665e-07
-5.76252e-05
-4.14328e-07
-5.75745e-05
-4.22386e-07
-5.73378e-05
-3.55285e-07
-5.67697e-05
-1.43788e-07
-5.56281e-05
3.14758e-07
-5.34744e-05
1.20836e-06
-4.96399e-05
2.73523e-06
4.57563e-06
-4.36227e-05
-4.17526e-05
1.67555e-08
-4.18712e-05
1.89684e-08
-4.2019e-05
2.11245e-08
-4.21887e-05
2.31712e-08
-4.23759e-05
2.53795e-08
-4.25767e-05
2.67479e-08
-4.27887e-05
2.7906e-08
-4.30098e-05
2.89783e-08
-4.32384e-05
2.97374e-08
-4.34732e-05
3.03386e-08
-4.37131e-05
3.08469e-08
-4.39569e-05
3.12004e-08
-4.42039e-05
3.14091e-08
-4.44535e-05
3.15949e-08
-4.47055e-05
3.18462e-08
-4.49597e-05
3.21702e-08
-4.5216e-05
3.25422e-08
-4.54742e-05
3.29474e-08
-4.57341e-05
3.33893e-08
-4.59954e-05
3.38816e-08
-4.62576e-05
3.44431e-08
-4.65205e-05
3.50876e-08
-4.6784e-05
3.58119e-08
-4.70478e-05
3.65972e-08
-4.73118e-05
3.74112e-08
-4.75754e-05
3.82185e-08
-4.78383e-05
3.89959e-08
-4.81e-05
3.97391e-08
-4.83601e-05
4.04467e-08
-4.8618e-05
4.11185e-08
-4.88735e-05
4.17565e-08
-4.91261e-05
4.23643e-08
-4.93754e-05
4.29575e-08
-4.9621e-05
4.35624e-08
-4.98627e-05
4.41913e-08
-5.00999e-05
4.48405e-08
-5.03324e-05
4.54974e-08
-5.05598e-05
4.61509e-08
-5.07819e-05
4.67902e-08
-5.09982e-05
4.7412e-08
-5.12087e-05
4.80246e-08
-5.1413e-05
4.85989e-08
-5.16111e-05
4.90745e-08
-5.18029e-05
4.94422e-08
-5.19882e-05
4.97099e-08
-5.21672e-05
4.98672e-08
-5.23399e-05
4.99144e-08
-5.25063e-05
4.98266e-08
-5.26665e-05
4.95851e-08
-5.28208e-05
4.9209e-08
-5.29694e-05
4.87555e-08
-5.31126e-05
4.83245e-08
-5.32506e-05
4.79564e-08
-5.33837e-05
4.76264e-08
-5.35121e-05
4.7409e-08
-5.36363e-05
4.74327e-08
-5.37566e-05
4.77677e-08
-5.38732e-05
4.84896e-08
-5.39866e-05
4.9699e-08
-5.4097e-05
5.1515e-08
-5.42049e-05
5.40713e-08
-5.43106e-05
5.74967e-08
-5.44145e-05
6.19094e-08
-5.4517e-05
6.74277e-08
-5.46183e-05
7.41445e-08
-5.47189e-05
8.21694e-08
-5.48188e-05
9.14365e-08
-5.49191e-05
1.02491e-07
-5.5019e-05
1.15749e-07
-5.51199e-05
1.29992e-07
-5.52219e-05
1.45775e-07
-5.53255e-05
1.63046e-07
-5.54308e-05
1.81581e-07
-5.55385e-05
2.00978e-07
-5.5649e-05
2.21185e-07
-5.5762e-05
2.42109e-07
-5.58783e-05
2.62129e-07
-5.59985e-05
2.80654e-07
-5.61229e-05
2.96797e-07
-5.6252e-05
3.09402e-07
-5.63861e-05
3.17114e-07
-5.65258e-05
3.18384e-07
-5.66716e-05
3.11543e-07
-5.68239e-05
2.95149e-07
-5.69825e-05
2.67813e-07
-5.7147e-05
2.27425e-07
-5.7316e-05
1.73823e-07
-5.74888e-05
1.06996e-07
-5.76605e-05
2.76599e-08
-5.78263e-05
-6.03719e-08
-5.79759e-05
-1.54746e-07
-5.80916e-05
-2.55046e-07
-5.81446e-05
-3.61256e-07
-5.80923e-05
-4.74744e-07
-5.78509e-05
-5.96606e-07
-5.72646e-05
-7.30097e-07
-5.60659e-05
-8.83958e-07
-5.37854e-05
-1.07212e-06
-4.97462e-05
-1.30401e-06
-1.52121e-06
-4.36494e-05
-4.17386e-05
1.02972e-07
-4.18536e-05
1.33981e-07
-4.19979e-05
1.65348e-07
-4.21641e-05
1.8945e-07
-4.23475e-05
2.08733e-07
-4.25444e-05
2.23644e-07
-4.27527e-05
2.36193e-07
-4.29702e-05
2.46505e-07
-4.31954e-05
2.54954e-07
-4.34272e-05
2.62084e-07
-4.36643e-05
2.67938e-07
-4.39056e-05
2.72569e-07
-4.41505e-05
2.76248e-07
-4.43982e-05
2.79343e-07
-4.46485e-05
2.82156e-07
-4.49012e-05
2.84864e-07
-4.51562e-05
2.8749e-07
-4.54132e-05
2.89943e-07
-4.56719e-05
2.92117e-07
-4.5932e-05
2.93963e-07
-4.6193e-05
2.95522e-07
-4.64548e-05
2.96889e-07
-4.67172e-05
2.98134e-07
-4.69798e-05
2.99247e-07
-4.72425e-05
3.00124e-07
-4.75049e-05
3.00628e-07
-4.77666e-05
3.00658e-07
-4.80271e-05
3.00191e-07
-4.82859e-05
2.99253e-07
-4.85426e-05
2.97876e-07
-4.87969e-05
2.9607e-07
-4.90484e-05
2.93834e-07
-4.92966e-05
2.9118e-07
-4.95412e-05
2.88151e-07
-4.97818e-05
2.8478e-07
-5.0018e-05
2.81076e-07
-5.02496e-05
2.77034e-07
-5.04761e-05
2.7265e-07
-5.06972e-05
2.67938e-07
-5.09127e-05
2.62932e-07
-5.11224e-05
2.57686e-07
-5.1326e-05
2.52212e-07
-5.15234e-05
2.46476e-07
-5.17145e-05
2.40542e-07
-5.18993e-05
2.34477e-07
-5.20777e-05
2.28298e-07
-5.22499e-05
2.22058e-07
-5.24158e-05
2.15756e-07
-5.25756e-05
2.09392e-07
-5.27295e-05
2.03078e-07
-5.28777e-05
1.96941e-07
-5.30204e-05
1.91089e-07
-5.3158e-05
1.85558e-07
-5.32907e-05
1.80322e-07
-5.34188e-05
1.75489e-07
-5.35426e-05
1.71223e-07
-5.36624e-05
1.67593e-07
-5.37786e-05
1.6468e-07
-5.38915e-05
1.62597e-07
-5.40015e-05
1.61468e-07
-5.41088e-05
1.61443e-07
-5.4214e-05
1.62648e-07
-5.43173e-05
1.65189e-07
-5.4419e-05
1.69189e-07
-5.45196e-05
1.7475e-07
-5.46194e-05
1.81944e-07
-5.47188e-05
1.90852e-07
-5.48182e-05
2.01869e-07
-5.49175e-05
2.1502e-07
-5.50174e-05
2.29903e-07
-5.51183e-05
2.46713e-07
-5.52206e-05
2.65349e-07
-5.53246e-05
2.85591e-07
-5.54308e-05
3.07166e-07
-5.55396e-05
3.29922e-07
-5.56509e-05
3.53468e-07
-5.57655e-05
3.76757e-07
-5.58839e-05
3.9905e-07
-5.60066e-05
4.19442e-07
-5.6134e-05
4.36807e-07
-5.62667e-05
4.49806e-07
-5.64052e-05
4.56909e-07
-5.65501e-05
4.56467e-07
-5.67019e-05
4.46884e-07
-5.68604e-05
4.26397e-07
-5.70261e-05
3.93032e-07
-5.71977e-05
3.45466e-07
-5.73723e-05
2.81648e-07
-5.75457e-05
2.01032e-07
-5.77102e-05
1.04076e-07
-5.78565e-05
-8.37869e-09
-5.797e-05
-1.41549e-07
-5.80225e-05
-3.08825e-07
-5.79688e-05
-5.28385e-07
-5.77288e-05
-8.36642e-07
-5.71551e-05
-1.3038e-06
-5.59788e-05
-2.06027e-06
-5.37298e-05
-3.32114e-06
-4.97347e-05
-5.29908e-06
-7.58055e-06
-4.36754e-05
-4.16168e-05
1.63292e-07
-4.17137e-05
2.30885e-07
-4.1837e-05
2.88606e-07
-4.19789e-05
3.3136e-07
-4.21357e-05
3.65489e-07
-4.23051e-05
3.93111e-07
-4.2485e-05
4.16109e-07
-4.2674e-05
4.35422e-07
-4.2871e-05
4.52006e-07
-4.30753e-05
4.66353e-07
-4.32858e-05
4.78417e-07
-4.35014e-05
4.88256e-07
-4.37215e-05
4.96332e-07
-4.39454e-05
5.03209e-07
-4.41726e-05
5.0937e-07
-4.44029e-05
5.15198e-07
-4.46363e-05
5.20828e-07
-4.48725e-05
5.26167e-07
-4.51114e-05
5.31019e-07
-4.53527e-05
5.35226e-07
-4.55959e-05
5.3876e-07
-4.58407e-05
5.41714e-07
-4.60868e-05
5.44198e-07
-4.63338e-05
5.46244e-07
-4.65814e-05
5.47762e-07
-4.68294e-05
5.48588e-07
-4.70773e-05
5.48573e-07
-4.73248e-05
5.47652e-07
-4.75714e-05
5.4585e-07
-4.78167e-05
5.43214e-07
-4.80604e-05
5.39785e-07
-4.83022e-05
5.35576e-07
-4.85416e-05
5.30607e-07
-4.87784e-05
5.24915e-07
-4.90121e-05
5.1854e-07
-4.92425e-05
5.11493e-07
-4.94693e-05
5.03771e-07
-4.9692e-05
4.95381e-07
-4.99104e-05
4.86365e-07
-5.01243e-05
4.76761e-07
-5.03332e-05
4.6662e-07
-5.0537e-05
4.56002e-07