/*--------------------------------*- C++ -*----------------------------------*\
| =========                 |                                                 |
| \\      /  F ield         | OpenFOAM: The Open Source CFD Toolbox           |
|  \\    /   O peration     | Version:  2.1.0                                 |
|   \\  /    A nd           | Web:      www.OpenFOAM.org                      |
|    \\/     M anipulation  |                                                 |
\*---------------------------------------------------------------------------*/
FoamFile
{
    version     2.0;
    format      ascii;
    class       volVectorField;
    location    "0.09";
    object      U;
}
// * * * * * * * * * * * * * * * * * * * * * * * * * * * * * * * * * * * * * //

dimensions      [0 1 -1 0 0 0 0];

internalField   nonuniform List<vector> 
6400
(
(-1.38486 -0.00048044 0)
(-1.38298 -0.000440809 0)
(-1.38104 -0.000557921 0)
(-1.37858 -0.000685651 0)
(-1.37561 -0.000811172 0)
(-1.37216 -0.000933165 0)
(-1.36823 -0.00105116 0)
(-1.36384 -0.00116641 0)
(-1.359 -0.00127842 0)
(-1.35372 -0.00138946 0)
(-1.34799 -0.00150007 0)
(-1.34183 -0.00161076 0)
(-1.33523 -0.00172116 0)
(-1.32819 -0.00183119 0)
(-1.32072 -0.00194061 0)
(-1.31281 -0.00204901 0)
(-1.30448 -0.00215589 0)
(-1.29573 -0.00226035 0)
(-1.28657 -0.00236107 0)
(-1.27702 -0.00245667 0)
(-1.2671 -0.0025461 0)
(-1.25684 -0.00262873 0)
(-1.24627 -0.00270444 0)
(-1.23541 -0.0027736 0)
(-1.22429 -0.00283692 0)
(-1.21292 -0.00289526 0)
(-1.20134 -0.00294962 0)
(-1.18954 -0.00300109 0)
(-1.17755 -0.00305055 0)
(-1.16536 -0.00309824 0)
(-1.15299 -0.00314337 0)
(-1.14045 -0.0031842 0)
(-1.12776 -0.00321895 0)
(-1.11495 -0.00324626 0)
(-1.10205 -0.00326516 0)
(-1.0891 -0.00327513 0)
(-1.07612 -0.00327625 0)
(-1.06316 -0.00326916 0)
(-1.05023 -0.00325503 0)
(-1.03738 -0.00323515 0)
(-1.02462 -0.00321163 0)
(-1.01195 -0.00318662 0)
(-0.999385 -0.00316158 0)
(-0.986917 -0.00313746 0)
(-0.974542 -0.00311517 0)
(-0.962252 -0.00309557 0)
(-0.950034 -0.00307947 0)
(-0.937872 -0.00306746 0)
(-0.92575 -0.00306018 0)
(-0.913647 -0.00305828 0)
(-0.901542 -0.00306232 0)
(-0.889408 -0.00307262 0)
(-0.877224 -0.00308891 0)
(-0.864964 -0.00311103 0)
(-0.852606 -0.0031393 0)
(-0.840124 -0.00317407 0)
(-0.827493 -0.003215 0)
(-0.814691 -0.00326118 0)
(-0.801697 -0.00331238 0)
(-0.788491 -0.00336893 0)
(-0.775051 -0.00343109 0)
(-0.761354 -0.0034994 0)
(-0.747376 -0.00357369 0)
(-0.733096 -0.00365243 0)
(-0.718498 -0.00373528 0)
(-0.703564 -0.00382289 0)
(-0.688277 -0.00391395 0)
(-0.672624 -0.00400825 0)
(-0.65659 -0.00410733 0)
(-0.64016 -0.00420954 0)
(-0.623324 -0.00431331 0)
(-0.60607 -0.00442095 0)
(-0.588381 -0.00453376 0)
(-0.57024 -0.00465057 0)
(-0.551632 -0.00477126 0)
(-0.532538 -0.00489697 0)
(-0.512934 -0.00502938 0)
(-0.49279 -0.00517168 0)
(-0.472057 -0.00532835 0)
(-0.450668 -0.00550457 0)
(-0.428534 -0.00570676 0)
(-0.405535 -0.00594388 0)
(-0.381511 -0.00622718 0)
(-0.356261 -0.00656681 0)
(-0.329545 -0.00697186 0)
(-0.301096 -0.00744762 0)
(-0.270644 -0.00799057 0)
(-0.23796 -0.00858277 0)
(-0.202943 -0.00917837 0)
(-0.16577 -0.00968183 0)
(-0.127186 -0.00989999 0)
(-0.0890983 -0.00943416 0)
(-0.0552053 -0.00777165 0)
(-0.030558 -0.00473797 0)
(-0.0192848 -0.000982792 0)
(-0.0237944 0.0032693 0)
(-0.0524235 0.0112419 0)
(-0.130161 0.028109 0)
(-0.31964 0.0670866 0)
(-0.898391 0.18647 0)
(-1.81751 -0.00152414 0)
(-1.81383 -0.00201253 0)
(-1.80867 -0.00261456 0)
(-1.8021 -0.00313772 0)
(-1.79456 -0.00359815 0)
(-1.78623 -0.00402095 0)
(-1.7772 -0.00441886 0)
(-1.76754 -0.00480258 0)
(-1.75728 -0.00517171 0)
(-1.74645 -0.00552997 0)
(-1.73508 -0.00587712 0)
(-1.72322 -0.00621358 0)
(-1.71092 -0.00653909 0)
(-1.69821 -0.00685478 0)
(-1.68513 -0.00716055 0)
(-1.67172 -0.00745557 0)
(-1.658 -0.00773851 0)
(-1.64402 -0.00800736 0)
(-1.62982 -0.00825916 0)
(-1.61543 -0.00849062 0)
(-1.6009 -0.00869931 0)
(-1.58627 -0.00888412 0)
(-1.57158 -0.00904539 0)
(-1.55686 -0.00918473 0)
(-1.54215 -0.00930433 0)
(-1.52748 -0.00940655 0)
(-1.51288 -0.00949391 0)
(-1.49838 -0.00956919 0)
(-1.48399 -0.0096349 0)
(-1.46975 -0.00969262 0)
(-1.45565 -0.00974217 0)
(-1.44172 -0.00978165 0)
(-1.42796 -0.00980853 0)
(-1.41436 -0.00982057 0)
(-1.40093 -0.00981585 0)
(-1.38767 -0.00979315 0)
(-1.37457 -0.00975246 0)
(-1.36165 -0.00969496 0)
(-1.34889 -0.00962302 0)
(-1.33632 -0.00953941 0)
(-1.32391 -0.00944832 0)
(-1.31168 -0.00935432 0)
(-1.29962 -0.00926098 0)
(-1.28774 -0.00917097 0)
(-1.27601 -0.00908677 0)
(-1.26444 -0.00901056 0)
(-1.253 -0.00894436 0)
(-1.2417 -0.00888974 0)
(-1.23051 -0.00884825 0)
(-1.21941 -0.00882145 0)
(-1.2084 -0.00881083 0)
(-1.19744 -0.00881728 0)
(-1.18654 -0.00884 0)
(-1.17565 -0.00887838 0)
(-1.16478 -0.00893328 0)
(-1.15391 -0.00900568 0)
(-1.143 -0.00909471 0)
(-1.13206 -0.00919771 0)
(-1.12106 -0.00931342 0)
(-1.11 -0.00944249 0)
(-1.09886 -0.0095851 0)
(-1.08763 -0.00974201 0)
(-1.07632 -0.00991295 0)
(-1.0649 -0.0100938 0)
(-1.05338 -0.0102836 0)
(-1.04175 -0.0104839 0)
(-1.03002 -0.0106907 0)
(-1.01818 -0.0109026 0)
(-1.00623 -0.011124 0)
(-0.994178 -0.0113545 0)
(-0.982008 -0.0115904 0)
(-0.969712 -0.0118339 0)
(-0.957292 -0.0120876 0)
(-0.94475 -0.0123506 0)
(-0.932075 -0.0126239 0)
(-0.919252 -0.0129113 0)
(-0.906262 -0.013218 0)
(-0.893077 -0.0135527 0)
(-0.879661 -0.0139263 0)
(-0.865965 -0.0143517 0)
(-0.851929 -0.0148456 0)
(-0.837478 -0.0154296 0)
(-0.822518 -0.0161309 0)
(-0.806935 -0.016974 0)
(-0.790599 -0.0179818 0)
(-0.773365 -0.0191663 0)
(-0.755094 -0.0205167 0)
(-0.735675 -0.0219854 0)
(-0.715078 -0.0234548 0)
(-0.693419 -0.0246893 0)
(-0.671057 -0.0252305 0)
(-0.648675 -0.0242127 0)
(-0.627514 -0.0204321 0)
(-0.610167 -0.0130509 0)
(-0.60431 -0.00143108 0)
(-0.617084 0.01244 0)
(-0.660031 0.0377613 0)
(-0.754209 0.0868305 0)
(-0.940537 0.191449 0)
(-1.39349 0.493225 0)
(-1.93734 -0.002669 0)
(-1.93318 -0.0045079 0)
(-1.9272 -0.00584054 0)
(-1.91988 -0.0068578 0)
(-1.91182 -0.00769098 0)
(-1.90315 -0.00842174 0)
(-1.89404 -0.00908843 0)
(-1.88452 -0.0097173 0)
(-1.87469 -0.010313 0)
(-1.86454 -0.0108812 0)
(-1.85413 -0.01142 0)
(-1.84347 -0.0119292 0)
(-1.83261 -0.0124084 0)
(-1.82158 -0.012861 0)
(-1.81039 -0.0132879 0)
(-1.7991 -0.0136886 0)
(-1.7877 -0.0140617 0)
(-1.77624 -0.014406 0)
(-1.76473 -0.0147191 0)
(-1.75319 -0.0149981 0)
(-1.74163 -0.0152411 0)
(-1.73005 -0.0154473 0)
(-1.71847 -0.0156174 0)
(-1.70691 -0.0157532 0)
(-1.69537 -0.0158571 0)
(-1.68387 -0.0159315 0)
(-1.67244 -0.0159791 0)
(-1.66109 -0.0160032 0)
(-1.64985 -0.0160076 0)
(-1.63872 -0.015996 0)
(-1.62773 -0.0159709 0)
(-1.61688 -0.0159333 0)
(-1.60617 -0.0158827 0)
(-1.5956 -0.015818 0)
(-1.58517 -0.0157378 0)
(-1.57486 -0.0156407 0)
(-1.56468 -0.0155263 0)
(-1.55463 -0.0153952 0)
(-1.54469 -0.0152491 0)
(-1.53488 -0.0150908 0)
(-1.5252 -0.0149238 0)
(-1.51564 -0.0147526 0)
(-1.50622 -0.0145815 0)
(-1.49695 -0.0144141 0)
(-1.48781 -0.0142542 0)
(-1.47883 -0.0141047 0)
(-1.46999 -0.0139683 0)
(-1.46129 -0.0138473 0)
(-1.45274 -0.0137437 0)
(-1.44433 -0.0136593 0)
(-1.43606 -0.0135966 0)
(-1.42793 -0.0135571 0)
(-1.41992 -0.0135392 0)
(-1.41204 -0.0135415 0)
(-1.40429 -0.0135651 0)
(-1.39665 -0.0136112 0)
(-1.38914 -0.0136788 0)
(-1.38175 -0.0137639 0)
(-1.37448 -0.013864 0)
(-1.36733 -0.0139794 0)
(-1.36032 -0.0141089 0)
(-1.35344 -0.0142513 0)
(-1.34671 -0.0144066 0)
(-1.34015 -0.0145711 0)
(-1.33377 -0.0147417 0)
(-1.32758 -0.0149187 0)
(-1.32159 -0.0150976 0)
(-1.31584 -0.0152746 0)
(-1.31035 -0.015454 0)
(-1.30513 -0.01564 0)
(-1.30022 -0.0158294 0)
(-1.29562 -0.0160191 0)
(-1.29138 -0.0162102 0)
(-1.28752 -0.0164048 0)
(-1.28407 -0.0166073 0)
(-1.28104 -0.0168236 0)
(-1.27845 -0.0170626 0)
(-1.2763 -0.0173367 0)
(-1.27459 -0.017661 0)
(-1.27332 -0.0180548 0)
(-1.27244 -0.0185422 0)
(-1.27192 -0.019152 0)
(-1.27171 -0.0199197 0)
(-1.27174 -0.0208763 0)
(-1.27193 -0.0220546 0)
(-1.27217 -0.0234714 0)
(-1.27238 -0.0251103 0)
(-1.27245 -0.0269037 0)
(-1.27237 -0.0286893 0)
(-1.27219 -0.0301596 0)
(-1.27207 -0.0307511 0)
(-1.27228 -0.0294955 0)
(-1.27326 -0.0249626 0)
(-1.27619 -0.0155218 0)
(-1.28331 0.000931729 0)
(-1.29751 0.0236763 0)
(-1.3316 0.0641174 0)
(-1.39925 0.138929 0)
(-1.52978 0.289895 0)
(-1.77826 0.672531 0)
(-1.9823 -0.00370741 0)
(-1.97894 -0.00679579 0)
(-1.975 -0.00873632 0)
(-1.96994 -0.0101261 0)
(-1.96449 -0.0112229 0)
(-1.95858 -0.0121554 0)
(-1.95248 -0.012985 0)
(-1.94611 -0.0137487 0)
(-1.93963 -0.0144592 0)
(-1.93299 -0.0151262 0)
(-1.92627 -0.0157501 0)
(-1.91947 -0.0163306 0)
(-1.91262 -0.016867 0)
(-1.90573 -0.0173654 0)
(-1.89882 -0.0178284 0)
(-1.8919 -0.0182563 0)
(-1.88498 -0.0186492 0)
(-1.87805 -0.0190069 0)
(-1.87113 -0.0193283 0)
(-1.86422 -0.0196122 0)
(-1.85731 -0.0198577 0)
(-1.8504 -0.0200649 0)
(-1.84349 -0.0202337 0)
(-1.83658 -0.0203647 0)
(-1.82968 -0.020458 0)
(-1.82279 -0.0205146 0)
(-1.81592 -0.0205358 0)
(-1.8091 -0.0205248 0)
(-1.80232 -0.0204859 0)
(-1.79562 -0.0204239 0)
(-1.78899 -0.0203435 0)
(-1.78245 -0.0202476 0)
(-1.77601 -0.0201372 0)
(-1.76966 -0.0200126 0)
(-1.76342 -0.0198732 0)
(-1.75729 -0.0197181 0)
(-1.75126 -0.0195467 0)
(-1.74533 -0.0193588 0)
(-1.73951 -0.0191553 0)
(-1.7338 -0.0189378 0)
(-1.72821 -0.0187091 0)
(-1.72274 -0.018473 0)
(-1.71741 -0.0182332 0)
(-1.71222 -0.0179934 0)
(-1.70717 -0.0177579 0)
(-1.7023 -0.0175303 0)
(-1.69759 -0.0173135 0)
(-1.69306 -0.0171098 0)
(-1.68873 -0.0169214 0)
(-1.6846 -0.0167503 0)
(-1.68068 -0.0165994 0)
(-1.67697 -0.0164712 0)
(-1.6735 -0.0163636 0)
(-1.67027 -0.0162736 0)
(-1.66728 -0.0162022 0)
(-1.66456 -0.0161503 0)
(-1.66212 -0.0161157 0)
(-1.65997 -0.0160959 0)
(-1.65813 -0.0160882 0)
(-1.6566 -0.0160911 0)
(-1.6554 -0.016102 0)
(-1.65455 -0.016118 0)
(-1.65407 -0.0161381 0)
(-1.65397 -0.0161602 0)
(-1.65429 -0.0161809 0)
(-1.65503 -0.0161979 0)
(-1.65621 -0.0162084 0)
(-1.65785 -0.0162071 0)
(-1.65997 -0.0161953 0)
(-1.66258 -0.0161806 0)
(-1.66571 -0.0161632 0)
(-1.66935 -0.016138 0)
(-1.67351 -0.0161058 0)
(-1.67818 -0.0160718 0)
(-1.68335 -0.0160437 0)
(-1.68902 -0.0160299 0)
(-1.69516 -0.0160437 0)
(-1.70173 -0.0161015 0)
(-1.70869 -0.016224 0)
(-1.71598 -0.0164362 0)
(-1.72354 -0.0167676 0)
(-1.7313 -0.0172517 0)
(-1.73919 -0.0179289 0)
(-1.74712 -0.0188335 0)
(-1.75502 -0.0199979 0)
(-1.76284 -0.0214391 0)
(-1.77053 -0.0231362 0)
(-1.77806 -0.0250078 0)
(-1.78544 -0.0268671 0)
(-1.79271 -0.0283721 0)
(-1.79989 -0.0289283 0)
(-1.80699 -0.0275712 0)
(-1.81395 -0.022836 0)
(-1.82103 -0.0127928 0)
(-1.82915 0.00439907 0)
(-1.83806 0.0320878 0)
(-1.85703 0.0811528 0)
(-1.89267 0.171058 0)
(-1.95393 0.347728 0)
(-2.04222 0.724682 0)
(-2.01074 -0.00445751 0)
(-2.00873 -0.00812124 0)
(-2.00728 -0.0104006 0)
(-2.00517 -0.0119952 0)
(-2.00301 -0.0132312 0)
(-2.00061 -0.0142588 0)
(-1.99824 -0.015157 0)
(-1.99577 -0.0159696 0)
(-1.99335 -0.016713 0)
(-1.99091 -0.0173985 0)
(-1.98854 -0.0180325 0)
(-1.9862 -0.0186139 0)
(-1.98393 -0.0191432 0)
(-1.98172 -0.0196308 0)
(-1.97958 -0.0200821 0)
(-1.97749 -0.0204976 0)
(-1.97545 -0.0208788 0)
(-1.97346 -0.0212258 0)
(-1.9715 -0.0215371 0)
(-1.96957 -0.021811 0)
(-1.96769 -0.0220468 0)
(-1.96583 -0.0222447 0)
(-1.96402 -0.0224051 0)
(-1.96224 -0.0225276 0)
(-1.96049 -0.0226114 0)
(-1.95877 -0.0226557 0)
(-1.95709 -0.0226609 0)
(-1.95543 -0.0226296 0)
(-1.95382 -0.0225659 0)
(-1.95224 -0.0224744 0)
(-1.95071 -0.0223598 0)
(-1.94924 -0.0222255 0)
(-1.94784 -0.0220733 0)
(-1.94651 -0.0219043 0)
(-1.94525 -0.0217184 0)
(-1.94408 -0.0215153 0)
(-1.94301 -0.0212942 0)
(-1.94203 -0.0210548 0)
(-1.94115 -0.0207973 0)
(-1.94039 -0.0205226 0)
(-1.93974 -0.020233 0)
(-1.93922 -0.0199317 0)
(-1.93885 -0.0196218 0)
(-1.93862 -0.0193063 0)
(-1.93855 -0.0189895 0)
(-1.93866 -0.018675 0)
(-1.93895 -0.0183657 0)
(-1.93945 -0.0180639 0)
(-1.94015 -0.0177714 0)
(-1.94108 -0.0174896 0)
(-1.94226 -0.017222 0)
(-1.94369 -0.016972 0)
(-1.94538 -0.0167387 0)
(-1.94735 -0.0165178 0)
(-1.9496 -0.0163103 0)
(-1.95214 -0.0161171 0)
(-1.95498 -0.015935 0)
(-1.95811 -0.0157628 0)
(-1.96157 -0.0156004 0)
(-1.96533 -0.015445 0)
(-1.96939 -0.0152936 0)
(-1.97376 -0.0151441 0)
(-1.97844 -0.0149934 0)
(-1.98341 -0.0148392 0)
(-1.98869 -0.0146811 0)
(-1.99427 -0.0145173 0)
(-2.00013 -0.0143442 0)
(-2.00626 -0.0141559 0)
(-2.01269 -0.0139508 0)
(-2.01942 -0.013734 0)
(-2.02645 -0.0135094 0)
(-2.0338 -0.0132776 0)
(-2.04145 -0.0130423 0)
(-2.04939 -0.0128103 0)
(-2.05762 -0.0125901 0)
(-2.06611 -0.0123918 0)
(-2.07485 -0.0122358 0)
(-2.0838 -0.0121406 0)
(-2.09294 -0.0121297 0)
(-2.10224 -0.0122308 0)
(-2.11168 -0.012476 0)
(-2.12121 -0.0129013 0)
(-2.13081 -0.0135478 0)
(-2.14041 -0.0144529 0)
(-2.15001 -0.0156432 0)
(-2.15955 -0.0171297 0)
(-2.16902 -0.0188874 0)
(-2.17836 -0.0208264 0)
(-2.18758 -0.0227536 0)
(-2.19665 -0.0243251 0)
(-2.20546 -0.024964 0)
(-2.21379 -0.0237812 0)
(-2.22114 -0.0194127 0)
(-2.22735 -0.0100169 0)
(-2.2321 0.00658592 0)
(-2.23358 0.0355227 0)
(-2.23613 0.0874285 0)
(-2.23937 0.182154 0)
(-2.23393 0.361909 0)
(-2.21065 0.689326 0)
(-2.03494 -0.00479452 0)
(-2.03447 -0.00838187 0)
(-2.03541 -0.0106944 0)
(-2.0362 -0.0123105 0)
(-2.03724 -0.0135562 0)
(-2.03828 -0.0145729 0)
(-2.03953 -0.0154483 0)
(-2.04084 -0.0162312 0)
(-2.04235 -0.0169352 0)
(-2.04397 -0.0175725 0)
(-2.04576 -0.0181543 0)
(-2.04769 -0.0186802 0)
(-2.04982 -0.019152 0)
(-2.05209 -0.0195824 0)
(-2.0545 -0.0199802 0)
(-2.05707 -0.020348 0)
(-2.05977 -0.0206877 0)
(-2.06257 -0.0209987 0)
(-2.06548 -0.0212774 0)
(-2.06848 -0.0215206 0)
(-2.07157 -0.0217267 0)
(-2.07474 -0.0218964 0)
(-2.07799 -0.0220305 0)
(-2.0813 -0.0221294 0)
(-2.08468 -0.0221921 0)
(-2.0881 -0.0222172 0)
(-2.09156 -0.0222043 0)
(-2.09506 -0.0221553 0)
(-2.0986 -0.0220736 0)
(-2.10217 -0.0219629 0)
(-2.10577 -0.0218266 0)
(-2.1094 -0.0216676 0)
(-2.11307 -0.0214873 0)
(-2.11679 -0.0212868 0)
(-2.12057 -0.0210666 0)
(-2.1244 -0.0208261 0)
(-2.12829 -0.0205651 0)
(-2.13225 -0.0202831 0)
(-2.13627 -0.0199803 0)
(-2.14038 -0.0196576 0)
(-2.14456 -0.019317 0)
(-2.14882 -0.0189619 0)
(-2.15317 -0.0185948 0)
(-2.1576 -0.0182182 0)
(-2.16212 -0.0178364 0)
(-2.16673 -0.0174528 0)
(-2.17145 -0.0170701 0)
(-2.17626 -0.0166916 0)
(-2.18117 -0.0163185 0)
(-2.1862 -0.0159506 0)
(-2.19134 -0.0155904 0)
(-2.19661 -0.015241 0)
(-2.20202 -0.0149038 0)
(-2.20757 -0.0145778 0)
(-2.21328 -0.0142635 0)
(-2.21912 -0.0139622 0)
(-2.22509 -0.0136703 0)
(-2.23121 -0.0133865 0)
(-2.23747 -0.0131123 0)
(-2.24387 -0.0128467 0)
(-2.2504 -0.0125864 0)
(-2.25706 -0.0123289 0)
(-2.26385 -0.0120712 0)
(-2.27076 -0.0118109 0)
(-2.2778 -0.0115484 0)
(-2.28496 -0.011282 0)
(-2.29224 -0.0110064 0)
(-2.29964 -0.0107162 0)
(-2.30718 -0.0104106 0)
(-2.31486 -0.0100919 0)
(-2.32262 -0.00976184 0)
(-2.33049 -0.00942526 0)
(-2.33848 -0.00908795 0)
(-2.34658 -0.00875787 0)
(-2.3548 -0.00844317 0)
(-2.36312 -0.00815105 0)
(-2.37155 -0.00791214 0)
(-2.38008 -0.00774237 0)
(-2.38872 -0.00766512 0)
(-2.39744 -0.00770909 0)
(-2.40624 -0.00790845 0)
(-2.4151 -0.008301 0)
(-2.42402 -0.0089252 0)
(-2.43296 -0.00982131 0)
(-2.44196 -0.0110171 0)
(-2.45096 -0.0125184 0)
(-2.45996 -0.0143011 0)
(-2.46893 -0.0162749 0)
(-2.47785 -0.0182517 0)
(-2.48663 -0.0199129 0)
(-2.49506 -0.020738 0)
(-2.50276 -0.0199452 0)
(-2.50891 -0.0164108 0)
(-2.51299 -0.00844743 0)
(-2.51379 0.00646929 0)
(-2.50761 0.0337473 0)
(-2.49477 0.0831776 0)
(-2.46829 0.173378 0)
(-2.4072 0.337487 0)
(-2.31054 0.599344 0)
(-2.05552 -0.00466541 0)
(-2.05668 -0.0076414 0)
(-2.05966 -0.00971043 0)
(-2.06303 -0.0111767 0)
(-2.06688 -0.0123144 0)
(-2.07095 -0.0132278 0)
(-2.07538 -0.0140015 0)
(-2.07996 -0.0146867 0)
(-2.08491 -0.0152943 0)
(-2.09003 -0.0158315 0)
(-2.0954 -0.0163072 0)
(-2.10103 -0.0167255 0)
(-2.10697 -0.017094 0)
(-2.11312 -0.0174223 0)
(-2.11948 -0.0177207 0)
(-2.12612 -0.0179984 0)
(-2.13296 -0.0182588 0)
(-2.13998 -0.0184997 0)
(-2.14717 -0.0187158 0)
(-2.15452 -0.0189022 0)
(-2.162 -0.0190568 0)
(-2.16959 -0.0191803 0)
(-2.17728 -0.0192748 0)
(-2.18505 -0.019341 0)
(-2.19287 -0.0193783 0)
(-2.20073 -0.0193843 0)
(-2.20862 -0.0193574 0)
(-2.21652 -0.0192978 0)
(-2.22442 -0.0192079 0)
(-2.23232 -0.0190904 0)
(-2.24021 -0.0189477 0)
(-2.24809 -0.0187815 0)
(-2.25597 -0.0185925 0)
(-2.26384 -0.0183816 0)
(-2.2717 -0.0181491 0)
(-2.27955 -0.0178949 0)
(-2.2874 -0.0176188 0)
(-2.29525 -0.0173207 0)
(-2.30309 -0.0170013 0)
(-2.31092 -0.0166617 0)
(-2.31875 -0.016304 0)
(-2.32656 -0.0159319 0)
(-2.33436 -0.0155478 0)
(-2.34214 -0.015154 0)
(-2.34991 -0.0147548 0)
(-2.35764 -0.0143531 0)
(-2.36536 -0.0139513 0)
(-2.37305 -0.013553 0)
(-2.38071 -0.01316 0)
(-2.38836 -0.012773 0)
(-2.39598 -0.0123929 0)
(-2.40355 -0.0120208 0)
(-2.41107 -0.0116578 0)
(-2.41855 -0.0113065 0)
(-2.426 -0.0109691 0)
(-2.43339 -0.0106444 0)
(-2.44073 -0.0103295 0)
(-2.44804 -0.0100236 0)
(-2.45529 -0.00972758 0)
(-2.46249 -0.00944044 0)
(-2.46965 -0.00915906 0)
(-2.47676 -0.00888033 0)
(-2.48383 -0.00860161 0)
(-2.49087 -0.00832039 0)
(-2.49786 -0.00803569 0)
(-2.50483 -0.00774504 0)
(-2.51178 -0.0074426 0)
(-2.5187 -0.00712321 0)
(-2.52563 -0.00679054 0)
(-2.53253 -0.00645082 0)
(-2.53941 -0.00609911 0)
(-2.54627 -0.00573771 0)
(-2.55313 -0.00537239 0)
(-2.55998 -0.00501171 0)
(-2.56685 -0.00466693 0)
(-2.57376 -0.00433007 0)
(-2.58072 -0.00405246 0)
(-2.58774 -0.00384177 0)
(-2.59484 -0.00372142 0)
(-2.60202 -0.0037218 0)
(-2.6093 -0.00387815 0)
(-2.61668 -0.00422885 0)
(-2.62419 -0.0048072 0)
(-2.63183 -0.00565835 0)
(-2.63962 -0.00681358 0)
(-2.64756 -0.00827022 0)
(-2.65566 -0.0100154 0)
(-2.66389 -0.0119696 0)
(-2.67218 -0.0139595 0)
(-2.68038 -0.0157102 0)
(-2.6882 -0.0167852 0)
(-2.69511 -0.0165409 0)
(-2.70011 -0.0141318 0)
(-2.70208 -0.00813247 0)
(-2.69967 0.00400948 0)
(-2.68669 0.0272109 0)
(-2.66067 0.0696568 0)
(-2.60917 0.147235 0)
(-2.5057 0.282969 0)
(-2.36355 0.477295 0)
(-2.07125 -0.00400509 0)
(-2.0744 -0.00604627 0)
(-2.07878 -0.00765409 0)
(-2.08424 -0.00882002 0)
(-2.09027 -0.00973895 0)
(-2.09688 -0.0104694 0)
(-2.10393 -0.011075 0)
(-2.11119 -0.0115979 0)
(-2.11906 -0.0120565 0)
(-2.12717 -0.0124529 0)
(-2.13559 -0.0127873 0)
(-2.1443 -0.0130677 0)
(-2.1533 -0.0133078 0)
(-2.16253 -0.0135147 0)
(-2.17197 -0.0136973 0)
(-2.18164 -0.0138669 0)
(-2.1915 -0.0140289 0)
(-2.20155 -0.0141805 0)
(-2.21179 -0.0143159 0)
(-2.2222 -0.0144301 0)
(-2.23276 -0.014521 0)
(-2.24343 -0.0145902 0)
(-2.2542 -0.0146401 0)
(-2.26504 -0.014672 0)
(-2.27594 -0.0146846 0)
(-2.28689 -0.0146749 0)
(-2.29787 -0.01464 0)
(-2.30885 -0.014579 0)
(-2.31982 -0.0144932 0)
(-2.33078 -0.0143843 0)
(-2.34169 -0.0142539 0)
(-2.35256 -0.0141028 0)
(-2.36337 -0.0139311 0)
(-2.37412 -0.0137391 0)
(-2.3848 -0.0135272 0)
(-2.3954 -0.0132954 0)
(-2.40592 -0.0130436 0)
(-2.41633 -0.0127723 0)
(-2.42664 -0.0124825 0)
(-2.43683 -0.0121759 0)
(-2.4469 -0.0118545 0)
(-2.45682 -0.0115211 0)
(-2.4666 -0.0111785 0)
(-2.47623 -0.0108297 0)
(-2.4857 -0.0104779 0)
(-2.49499 -0.0101256 0)
(-2.5041 -0.0097746 0)
(-2.51304 -0.0094275 0)
(-2.52178 -0.00908698 0)
(-2.53034 -0.00875633 0)
(-2.53871 -0.00843681 0)
(-2.54687 -0.00812711 0)
(-2.55482 -0.00782588 0)
(-2.56256 -0.00753608 0)
(-2.57011 -0.00726022 0)
(-2.57745 -0.00699516 0)
(-2.58461 -0.00673855 0)
(-2.59158 -0.00649022 0)
(-2.59837 -0.00624933 0)
(-2.605 -0.00601365 0)
(-2.61147 -0.00578046 0)
(-2.61781 -0.00554657 0)
(-2.62401 -0.00530872 0)
(-2.6301 -0.00506422 0)
(-2.63608 -0.00481118 0)
(-2.64198 -0.0045467 0)
(-2.6478 -0.00426538 0)
(-2.65356 -0.00396275 0)
(-2.65929 -0.00363792 0)
(-2.665 -0.00330723 0)
(-2.67071 -0.00295961 0)
(-2.67643 -0.00259552 0)
(-2.68219 -0.00222058 0)
(-2.68799 -0.00184249 0)
(-2.69386 -0.00148722 0)
(-2.69977 -0.0010971 0)
(-2.70583 -0.000785099 0)
(-2.71198 -0.000531707 0)
(-2.71825 -0.000360194 0)
(-2.72465 -0.000301373 0)
(-2.73121 -0.000390293 0)
(-2.73794 -0.000664885 0)
(-2.74489 -0.00115909 0)
(-2.75209 -0.00191487 0)
(-2.75946 -0.00297136 0)
(-2.76711 -0.00432156 0)
(-2.775 -0.00596976 0)
(-2.78308 -0.00786241 0)
(-2.79122 -0.00984059 0)
(-2.79925 -0.0116918 0)
(-2.8068 -0.0130775 0)
(-2.81323 -0.0135228 0)
(-2.81747 -0.0124153 0)
(-2.81786 -0.00877564 0)
(-2.8129 -0.000373221 0)
(-2.79503 0.016717 0)
(-2.75847 0.0485768 0)
(-2.68785 0.107119 0)
(-2.55475 0.206806 0)
(-2.3867 0.337851 0)
(-2.08051 -0.00267575 0)
(-2.08623 -0.00377314 0)
(-2.09141 -0.00477497 0)
(-2.09857 -0.00551511 0)
(-2.10617 -0.00609807 0)
(-2.11481 -0.00656103 0)
(-2.12398 -0.00693997 0)
(-2.1335 -0.00725267 0)
(-2.14354 -0.00752149 0)
(-2.15391 -0.00774993 0)
(-2.1646 -0.00793508 0)
(-2.17555 -0.00808419 0)
(-2.18672 -0.00820842 0)
(-2.19807 -0.00831283 0)
(-2.20958 -0.0084027 0)
(-2.22123 -0.00848531 0)
(-2.23303 -0.00856408 0)
(-2.24498 -0.00863679 0)
(-2.25708 -0.00869907 0)
(-2.2693 -0.00874763 0)
(-2.28163 -0.00878194 0)
(-2.29404 -0.00880376 0)
(-2.30651 -0.00881538 0)
(-2.31904 -0.00881749 0)
(-2.33161 -0.00880862 0)
(-2.34422 -0.00878608 0)
(-2.35684 -0.00874764 0)
(-2.36945 -0.00869259 0)
(-2.38202 -0.00862188 0)
(-2.39453 -0.00853671 0)
(-2.40697 -0.00843767 0)
(-2.41931 -0.00832485 0)
(-2.43155 -0.00819797 0)
(-2.44365 -0.00805699 0)
(-2.45561 -0.00790223 0)
(-2.46741 -0.00773391 0)
(-2.47902 -0.00755222 0)
(-2.49045 -0.00735761 0)
(-2.50165 -0.00715099 0)
(-2.51263 -0.0069341 0)
(-2.52336 -0.00670873 0)
(-2.53384 -0.00647637 0)
(-2.54404 -0.00623948 0)
(-2.55398 -0.00600107 0)
(-2.56362 -0.00576309 0)
(-2.57297 -0.00552691 0)
(-2.58204 -0.00529417 0)
(-2.5908 -0.00506632 0)
(-2.59928 -0.00484538 0)
(-2.60746 -0.0046345 0)
(-2.61537 -0.00443452 0)
(-2.623 -0.0042431 0)
(-2.63037 -0.00405817 0)
(-2.63749 -0.00388151 0)
(-2.64437 -0.00371383 0)
(-2.65102 -0.00355172 0)
(-2.65746 -0.0033932 0)
(-2.6637 -0.0032374 0)
(-2.66976 -0.00308239 0)
(-2.67566 -0.00292544 0)
(-2.68141 -0.00276368 0)
(-2.68703 -0.00259368 0)
(-2.69254 -0.0024121 0)
(-2.69796 -0.0022162 0)
(-2.7033 -0.0020036 0)
(-2.70858 -0.00177172 0)
(-2.71382 -0.00151592 0)
(-2.71903 -0.00123685 0)
(-2.72422 -0.000906927 0)
(-2.72944 -0.000577008 0)
(-2.73468 -0.000219847 0)
(-2.73997 0.000162275 0)
(-2.74531 0.000563833 0)
(-2.75072 0.000973664 0)
(-2.75626 0.00137148 0)
(-2.76185 0.00181654 0)
(-2.76759 0.00219106 0)
(-2.77349 0.00251453 0)
(-2.77958 0.00276479 0)
(-2.78587 0.00291176 0)
(-2.79237 0.00292079 0)
(-2.7991 0.00275446 0)
(-2.80608 0.00237089 0)
(-2.81335 0.00173829 0)
(-2.82081 0.000819102 0)
(-2.82859 -0.000399911 0)
(-2.83674 -0.0019228 0)
(-2.84494 -0.00373278 0)
(-2.85331 -0.00569621 0)
(-2.86154 -0.00767633 0)
(-2.86923 -0.00943316 0)
(-2.87567 -0.010673 0)
(-2.87973 -0.0110084 0)
(-2.87959 -0.00992052 0)
(-2.87274 -0.00592631 0)
(-2.85286 0.00349134 0)
(-2.80999 0.0221192 0)
(-2.72702 0.0571286 0)
(-2.57599 0.116424 0)
(-2.3952 0.190041 0)
(-2.08383 -0.000702115 0)
(-2.09133 -0.00100723 0)
(-2.09709 -0.00131649 0)
(-2.10559 -0.00154093 0)
(-2.11428 -0.00170578 0)
(-2.12401 -0.00184139 0)
(-2.1343 -0.00195225 0)
(-2.14509 -0.00203881 0)
(-2.15632 -0.00211384 0)
(-2.16789 -0.00217728 0)
(-2.17975 -0.00222734 0)
(-2.19183 -0.00226767 0)
(-2.20409 -0.00230196 0)
(-2.21648 -0.00233028 0)
(-2.229 -0.00235311 0)
(-2.24162 -0.00237254 0)
(-2.25436 -0.00238978 0)
(-2.26722 -0.00240408 0)
(-2.28018 -0.00241384 0)
(-2.29322 -0.00241789 0)
(-2.30631 -0.00241608 0)
(-2.31944 -0.00240907 -2.83185e-41)
(-2.3326 -0.00239783 0)
(-2.34578 -0.00238276 0)
(-2.35897 -0.00236363 0)
(-2.37216 -0.0023399 0)
(-2.38533 -0.00231112 0)
(-2.39845 -0.00227723 0)
(-2.4115 -0.00223867 0)
(-2.42445 -0.0021959 0)
(-2.43728 -0.00214898 0)
(-2.44998 -0.00209778 0)
(-2.46253 -0.0020419 0)
(-2.47491 -0.00198095 0)
(-2.48709 -0.0019149 0)
(-2.49906 -0.00184394 0)
(-2.5108 -0.00176838 0)
(-2.5223 -0.00168857 0)
(-2.53354 -0.001605 0)
(-2.5445 -0.00151842 0)
(-2.55517 -0.00142943 0)
(-2.56554 -0.00133892 0)
(-2.5756 -0.00124871 0)
(-2.58534 -0.00116017 0)
(-2.59477 -0.00107379 0)
(-2.60388 -0.000990117 0)
(-2.61267 -0.000909835 0)
(-2.62115 -0.000833794 0)
(-2.62931 -0.000762872 0)
(-2.63718 -0.000697846 0)
(-2.64475 -0.00063808 0)
(-2.65204 -0.00058107 0)
(-2.65907 -0.00052547 0)
(-2.66585 -0.000472247 0)
(-2.67239 -0.000420249 0)
(-2.67871 -0.000366207 0)
(-2.68482 -0.000308375 0)
(-2.69074 -0.000245141 0)
(-2.69649 -0.0001741 0)
(-2.70209 -9.23575e-05 0)
(-2.70755 3.26287e-06 0)
(-2.71289 0.000116085 0)
(-2.71813 0.000249211 0)
(-2.72329 0.000405491 0)
(-2.72838 0.000587357 0)
(-2.73343 0.000797187 0)
(-2.73845 0.00103627 0)
(-2.74347 0.00130894 0)
(-2.74845 0.00164452 0)
(-2.75348 0.00198848 0)
(-2.75855 0.00236817 0)
(-2.76369 0.00278103 0)
(-2.76891 0.00322164 0)
(-2.77424 0.00367744 0)
(-2.77969 0.00414626 0)
(-2.78528 0.00463872 0)
(-2.79101 0.00509657 0)
(-2.79692 0.00551161 0)
(-2.80304 0.00586208 0)
(-2.80937 0.00611878 0)
(-2.81595 0.00624753 0)
(-2.8228 0.00621019 0)
(-2.82993 0.00596287 7.00932e-41)
(-2.83738 0.00547339 0)
(-2.84515 0.00470963 0)
(-2.85323 0.00362911 0)
(-2.86166 0.00223202 0)
(-2.87013 0.000516008 6.06565e-42)
(-2.87882 -0.00145305 0)
(-2.8872 -0.00357845 0)
(-2.89501 -0.00573441 0)
(-2.9016 -0.00781436 0)
(-2.90575 -0.00968619 0)
(-2.90564 -0.0112046 -6.58549e-41)
(-2.89806 -0.0118903 0)
(-2.87747 -0.0109229 0)
(-2.83257 -0.00712578 -8.37632e-41)
(-2.74472 0.00169083 0)
(-2.58618 0.0179317 0)
(-2.40063 0.0383763 0)
(-2.08335 0.00149343 0)
(-2.09058 0.00190893 0)
(-2.09606 0.00232819 0)
(-2.10437 0.00265598 0)
(-2.113 0.00292546 0)
(-2.12242 0.00312962 0)
(-2.13259 0.00330116 0)
(-2.1432 0.00344358 0)
(-2.15425 0.00355869 0)
(-2.16566 0.00365524 0)
(-2.17737 0.00373466 0)
(-2.18933 0.00379684 0)
(-2.20147 0.00384532 0)
(-2.21376 0.00388623 0)
(-2.22619 0.00392444 0)
(-2.23874 0.00396228 0)
(-2.25141 0.00399972 0)
(-2.2642 0.00403544 0)
(-2.2771 0.00406813 0)
(-2.29008 0.00409734 0)
(-2.30312 0.0041238 0)
(-2.31619 0.0041489 4.87701e-41)
(-2.32929 0.00417347 0)
(-2.34241 0.00419716 0)
(-2.35554 0.00421827 0)
(-2.36867 0.00423464 0)
(-2.38178 0.00424471 0)
(-2.39483 0.00424813 0)
(-2.40782 0.00424521 0)
(-2.42071 0.00423636 0)
(-2.43348 0.00422173 0)
(-2.44613 0.00420135 0)
(-2.45862 0.00417556 0)
(-2.47094 0.00414522 0)
(-2.48307 0.00411091 0)
(-2.49499 0.00407271 0)
(-2.50669 0.00403036 0)
(-2.51814 0.00398371 0)
(-2.52933 0.00393278 0)
(-2.54024 0.00387794 0)
(-2.55087 0.00382001 0)
(-2.56121 0.00375874 0)
(-2.57123 0.00369297 0)
(-2.58094 0.00362337 0)
(-2.59034 0.00355089 0)
(-2.59942 0.00347561 0)
(-2.60818 0.00339818 0)
(-2.61664 0.00331831 0)
(-2.62478 0.00323573 0)
(-2.63262 0.0031521 0)
(-2.64017 0.00306971 0)
(-2.64745 0.00299117 0)
(-2.65446 0.00291743 0)
(-2.66121 0.00284785 0)
(-2.66773 0.00278471 0)
(-2.67403 0.00273167 0)
(-2.68012 0.00269048 0)
(-2.68602 0.00266307 0)
(-2.69175 0.00265212 0)
(-2.69732 0.00266067 0)
(-2.70276 0.00269227 0)
(-2.70807 0.0027501 0)
(-2.71328 0.00283695 0)
(-2.71841 0.00295583 0)
(-2.72347 0.0031092 0)
(-2.72848 0.0032993 0)
(-2.73346 0.00352632 0)
(-2.73843 0.00380203 0)
(-2.74339 0.00413192 0)
(-2.74838 0.00449575 0)
(-2.7534 0.00490288 0)
(-2.75848 0.00535142 0)
(-2.76364 0.00583578 0)
(-2.76889 0.00634755 0)
(-2.77427 0.00688419 0)
(-2.77977 0.00743963 0)
(-2.78542 0.00798054 0)
(-2.79124 0.00849031 0)
(-2.79727 0.00894655 0)
(-2.80352 0.00932075 0)
(-2.81002 0.00957927 0)
(-2.8168 0.00968365 0)
(-2.82388 0.00959243 1.12758e-40)
(-2.83129 0.00926768 0)
(-2.83905 0.00867005 0)
(-2.84715 0.00774853 0)
(-2.85558 0.0064846 0)
(-2.86423 0.00485262 5.70423e-41)
(-2.87302 0.00285456 0)
(-2.88143 0.000543645 0)
(-2.88932 -0.00203989 0)
(-2.89563 -0.00495535 0)
(-2.89973 -0.00837002 0)
(-2.89964 -0.0125279 -7.36324e-41)
(-2.89218 -0.0178975 0)
(-2.87162 -0.0253975 0)
(-2.8275 -0.0367759 -4.32299e-40)
(-2.74123 -0.0549241 0)
(-2.58452 -0.0826922 0)
(-2.40072 -0.114228 0)
(-2.07868 0.00332727 0)
(-2.08374 0.00455963 0)
(-2.08866 0.00567268 0)
(-2.09552 0.00650797 0)
(-2.10294 0.00717518 0)
(-2.11095 0.00770659 0)
(-2.11987 0.0081514 0)
(-2.12907 0.00852219 0)
(-2.1387 0.00883536 0)
(-2.14875 0.00910383 0)
(-2.15911 0.00932771 0)
(-2.16976 0.00950841 0)
(-2.18064 0.00965511 0)
(-2.19173 0.00977947 0)
(-2.20298 0.00989132 0)
(-2.21439 0.00999768 0)
(-2.22596 0.0101006 0)
(-2.23769 0.0101978 0)
(-2.24956 0.0102854 0)
(-2.26158 0.0103609 0)
(-2.2737 0.0104244 0)
(-2.28591 0.0104782 0)
(-2.29818 0.0105246 0)
(-2.3105 0.0105639 0)
(-2.32286 0.0105937 0)
(-2.33525 0.0106102 0)
(-2.34765 0.0106103 0)
(-2.36004 0.0105929 0)
(-2.3724 0.0105586 0)
(-2.3847 0.0105084 0)
(-2.39692 0.0104429 0)
(-2.40906 0.0103623 0)
(-2.42109 0.010267 0)
(-2.43299 0.010158 0)
(-2.44476 0.0100361 0)
(-2.45636 0.00990178 0)
(-2.46779 0.00975474 0)
(-2.47903 0.0095951 0)
(-2.49006 0.00942354 0)
(-2.50086 0.00924096 0)
(-2.51143 0.00904867 0)
(-2.52175 0.00884758 0)
(-2.5318 0.00863774 0)
(-2.54159 0.008421 0)
(-2.5511 0.00819942 0)
(-2.56033 0.00797413 0)
(-2.56927 0.00774684 0)
(-2.57793 0.00751793 0)
(-2.5863 0.0072876 0)
(-2.59439 0.00705955 0)
(-2.6022 0.00683816 0)
(-2.60974 0.00662622 0)
(-2.61703 0.00642457 0)
(-2.62407 0.00623258 0)
(-2.63087 0.0060533 0)
(-2.63744 0.00589169 0)
(-2.6438 0.00574956 0)
(-2.64996 0.00562872 0)
(-2.65593 0.00553226 0)
(-2.66174 0.00546352 0)
(-2.66739 0.00542639 0)
(-2.6729 0.00542419 0)
(-2.67829 0.00545934 0)
(-2.68358 0.00553497 0)
(-2.68878 0.00565382 0)
(-2.6939 0.00581758 0)
(-2.69897 0.00602917 0)
(-2.70401 0.00629649 0)
(-2.70901 0.00661925 0)
(-2.71401 0.0069918 0)
(-2.71902 0.00741804 0)
(-2.72406 0.00789439 0)
(-2.72916 0.00841524 0)
(-2.73433 0.00897484 0)
(-2.73959 0.00956841 0)
(-2.74495 0.0101853 0)
(-2.75044 0.0108029 0)
(-2.75609 0.0114022 0)
(-2.76193 0.0119609 0)
(-2.76797 0.0124513 0)
(-2.77426 0.0128402 0)
(-2.78082 0.0130899 0)
(-2.78768 0.0131589 0)
(-2.79488 0.0130053 0)
(-2.80243 0.012583 0)
(-2.81033 0.0118405 0)
(-2.81858 0.0107307 0)
(-2.82709 0.00918917 0)
(-2.83571 0.00717553 0)
(-2.8441 0.00463769 0)
(-2.85197 0.00157832 0)
(-2.85837 -0.00215969 0)
(-2.86227 -0.00704587 0)
(-2.8625 -0.0137588 0)
(-2.85597 -0.0236118 0)
(-2.83743 -0.0391349 0)
(-2.79724 -0.0649823 0)
(-2.71801 -0.108945 0)
(-2.57139 -0.17919 0)
(-2.39415 -0.264108 0)
(-2.06768 0.00448674 0)
(-2.07031 0.00668908 0)