/*--------------------------------*- C++ -*----------------------------------*\
| =========                 |                                                 |
| \\      /  F ield         | OpenFOAM: The Open Source CFD Toolbox           |
|  \\    /   O peration     | Version:  2.1.0                                 |
|   \\  /    A nd           | Web:      www.OpenFOAM.org                      |
|    \\/     M anipulation  |                                                 |
\*---------------------------------------------------------------------------*/
FoamFile
{
    version     2.0;
    format      ascii;
    class       volScalarField;
    location    "0.21";
    object      C1;
}
// * * * * * * * * * * * * * * * * * * * * * * * * * * * * * * * * * * * * * //

dimensions      [0 0 0 0 0 0 0];

internalField   nonuniform List<scalar> 
6400
(
1.99892e-10
2.33197e-10
2.72169e-10
3.16608e-10
3.67287e-10
4.25035e-10
4.90733e-10
5.65334e-10
6.49866e-10
7.45439e-10
8.53246e-10
9.74568e-10
1.11077e-09
1.26332e-09
1.43376e-09
1.6237e-09
1.83488e-09
2.06907e-09
2.32812e-09
2.61396e-09
2.92855e-09
3.27389e-09
3.65201e-09
4.06489e-09
4.51453e-09
5.00284e-09
5.53167e-09
6.10276e-09
6.71767e-09
7.37783e-09
8.0844e-09
8.83831e-09
9.64016e-09
1.04902e-08
1.13883e-08
1.23339e-08
1.33259e-08
1.43627e-08
1.54419e-08
1.65609e-08
1.7716e-08
1.89029e-08
2.01166e-08
2.13515e-08
2.26009e-08
2.38575e-08
2.51133e-08
2.63596e-08
2.75871e-08
2.87865e-08
2.99475e-08
3.10594e-08
3.21112e-08
3.30922e-08
3.39925e-08
3.4802e-08
3.5511e-08
3.61098e-08
3.65898e-08
3.69428e-08
3.71619e-08
3.72413e-08
3.71761e-08
3.69633e-08
3.66011e-08
3.60893e-08
3.54291e-08
3.46235e-08
3.36771e-08
3.25961e-08
3.13885e-08
3.00635e-08
2.86317e-08
2.7105e-08
2.54961e-08
2.3819e-08
2.20888e-08
2.0321e-08
1.8532e-08
1.67385e-08
1.49573e-08
1.32055e-08
1.14999e-08
9.85771e-09
8.29604e-09
6.83218e-09
5.48323e-09
4.26566e-09
3.19453e-09
2.28221e-09
1.5368e-09
9.5999e-10
5.45679e-10
2.78446e-10
1.30102e-10
6.00288e-11
2.50138e-11
8.20162e-12
1.88245e-12
2.86847e-13
4.62804e-10
5.39998e-10
6.29447e-10
7.31069e-10
8.46624e-10
9.77964e-10
1.12704e-09
1.29596e-09
1.48697e-09
1.7025e-09
1.94516e-09
2.21772e-09
2.52316e-09
2.86462e-09
3.24542e-09
3.66907e-09
4.13922e-09
4.65969e-09
5.23442e-09
5.86745e-09
6.56294e-09
7.32511e-09
8.15823e-09
9.06648e-09
1.0054e-08
1.11248e-08
1.22827e-08
1.35313e-08
1.48738e-08
1.63131e-08
1.78514e-08
1.94907e-08
2.12321e-08
2.30759e-08
2.50216e-08
2.70679e-08
2.92123e-08
3.14512e-08
3.37798e-08
3.61918e-08
3.86798e-08
4.12345e-08
4.38454e-08
4.65002e-08
4.91848e-08
5.18839e-08
5.45801e-08
5.72547e-08
5.98872e-08
6.24566e-08
6.49412e-08
6.73184e-08
6.95658e-08
7.16601e-08
7.3579e-08
7.53004e-08
7.68032e-08
7.80667e-08
7.90717e-08
7.98006e-08
8.02382e-08
8.03716e-08
8.01908e-08
7.9689e-08
7.88625e-08
7.77113e-08
7.62386e-08
7.44514e-08
7.23603e-08
6.99798e-08
6.7328e-08
6.44257e-08
6.12966e-08
5.79667e-08
5.44641e-08
5.08193e-08
4.70641e-08
4.32321e-08
3.93577e-08
3.54762e-08
3.16231e-08
2.78344e-08
2.41467e-08
2.05976e-08
1.72258e-08
1.4071e-08
1.11735e-08
8.57303e-09
6.30653e-09
4.40409e-09
2.88375e-09
1.74492e-09
9.62e-10
4.80817e-10
2.23852e-10
1.06607e-10
4.70054e-11
1.78396e-11
5.72545e-12
1.66338e-12
1.19753e-09
1.39614e-09
1.62555e-09
1.88581e-09
2.18132e-09
2.51672e-09
2.89691e-09
3.32715e-09
3.81306e-09
4.3607e-09
4.97653e-09
5.66749e-09
6.44093e-09
7.30465e-09
8.26691e-09
9.33634e-09
1.0522e-08
1.18333e-08
1.32799e-08
1.48718e-08
1.66191e-08
1.8532e-08
2.0621e-08
2.28964e-08
2.53683e-08
2.80466e-08
3.09405e-08
3.40589e-08
3.74096e-08
4.09995e-08
4.48343e-08
4.89186e-08
5.3255e-08
5.78446e-08
6.26862e-08
6.77765e-08
7.31097e-08
7.8677e-08
8.44668e-08
9.04644e-08
9.66516e-08
1.03006e-07
1.09504e-07
1.16114e-07
1.22803e-07
1.29536e-07
1.36269e-07
1.42959e-07
1.49557e-07
1.56012e-07
1.6227e-07
1.68277e-07
1.73979e-07
1.79318e-07
1.84239e-07
1.88686e-07
1.92605e-07
1.95944e-07
1.98653e-07
2.00689e-07
2.0201e-07
2.02583e-07
2.02381e-07
2.01384e-07
1.99581e-07
1.96968e-07
1.9355e-07
1.89344e-07
1.84372e-07
1.7867e-07
1.72277e-07
1.65244e-07
1.57627e-07
1.49486e-07
1.40887e-07
1.31901e-07
1.22602e-07
1.13068e-07
1.03379e-07
9.36175e-08
8.3868e-08
7.42172e-08
6.47562e-08
5.55816e-08
4.6795e-08
3.85042e-08
3.08223e-08
2.38646e-08
1.77427e-08
1.2553e-08
8.36036e-09
5.17919e-09
2.95388e-09
1.55071e-09
7.74695e-10
4.06452e-10
2.00634e-10
9.07506e-11
3.83096e-11
1.67035e-11
2.93007e-09
3.41143e-09
3.96735e-09
4.59806e-09
5.31382e-09
6.12563e-09
7.04514e-09
8.08487e-09
9.25823e-09
1.05796e-08
1.20645e-08
1.37293e-08
1.55915e-08
1.76697e-08
1.99835e-08
2.25535e-08
2.54012e-08
2.85491e-08
3.20201e-08
3.58381e-08
4.00273e-08
4.46122e-08
4.96173e-08
5.50673e-08
6.09866e-08
6.73988e-08
7.43264e-08
8.17905e-08
8.98105e-08
9.84034e-08
1.07584e-07
1.17363e-07
1.27749e-07
1.38745e-07
1.50351e-07
1.6256e-07
1.75361e-07
1.88736e-07
2.02659e-07
2.17099e-07
2.32015e-07
2.47361e-07
2.63079e-07
2.79106e-07
2.95366e-07
3.11778e-07
3.28251e-07
3.44684e-07
3.60973e-07
3.77004e-07
3.92654e-07
4.07797e-07
4.22304e-07
4.36043e-07
4.4888e-07
4.60684e-07
4.71324e-07
4.80676e-07
4.88617e-07
4.95034e-07
4.99824e-07
5.02897e-07
5.04176e-07
5.03601e-07
5.01129e-07
4.96738e-07
4.90422e-07
4.82196e-07
4.72099e-07
4.6019e-07
4.46545e-07
4.31259e-07
4.14437e-07
3.96198e-07
3.76673e-07
3.55999e-07
3.34321e-07
3.1179e-07
2.88563e-07
2.64804e-07
2.40686e-07
2.16389e-07
1.92112e-07
1.68081e-07
1.44544e-07
1.21785e-07
1.00124e-07
7.99172e-08
6.15433e-08
4.53791e-08
3.17544e-08
2.08891e-08
1.2822e-08
7.35333e-09
4.061e-09
2.34674e-09
1.29574e-09
6.78599e-10
3.47987e-10
1.93932e-10
6.63995e-09
7.71857e-09
8.96565e-09
1.03819e-08
1.19895e-08
1.38125e-08
1.58768e-08
1.82101e-08
2.08422e-08
2.38052e-08
2.71334e-08
3.08634e-08
3.50342e-08
3.96873e-08
4.48664e-08
5.06174e-08
5.69887e-08
6.40303e-08
7.17943e-08
8.03342e-08
8.9705e-08
9.99626e-08
1.11163e-07
1.23362e-07
1.36616e-07
1.50979e-07
1.66505e-07
1.83243e-07
2.0124e-07
2.20539e-07
2.41177e-07
2.63186e-07
2.86589e-07
3.11403e-07
3.37635e-07
3.6528e-07
3.94324e-07
4.24738e-07
4.56482e-07
4.89497e-07
5.23714e-07
5.59041e-07
5.95375e-07
6.3259e-07
6.70543e-07
7.09075e-07
7.48005e-07
7.87135e-07
8.26252e-07
8.65125e-07
9.03502e-07
9.41123e-07
9.77714e-07
1.01299e-06
1.04668e-06
1.07847e-06
1.10809e-06
1.13525e-06
1.15966e-06
1.18106e-06
1.19919e-06
1.2138e-06
1.22469e-06
1.23166e-06
1.23456e-06
1.23326e-06
1.22768e-06
1.21775e-06
1.20347e-06
1.18487e-06
1.162e-06
1.13497e-06
1.1039e-06
1.06894e-06
1.03025e-06
9.88025e-07
9.42451e-07
8.93737e-07
8.42099e-07
7.87769e-07
7.30998e-07
6.72058e-07
6.11281e-07
5.49098e-07
4.86035e-07
4.22759e-07
3.60111e-07
2.99129e-07
2.41054e-07
1.87291e-07
1.3931e-07
9.84691e-08
6.57649e-08
4.1545e-08
2.53572e-08
1.59631e-08
9.77518e-09
5.79623e-09
3.44354e-09
2.24917e-09
1.38501e-08
1.6075e-08
1.86514e-08
2.15819e-08
2.49109e-08
2.86874e-08
3.29645e-08
3.77993e-08
4.32533e-08
4.93928e-08
5.6289e-08
6.40181e-08
7.26611e-08
8.23045e-08
9.30396e-08
1.04963e-07
1.18175e-07
1.32782e-07
1.48894e-07
1.66625e-07
1.86091e-07
2.07413e-07
2.30713e-07
2.56112e-07
2.83733e-07
3.13701e-07
3.46134e-07
3.81149e-07
4.18858e-07
4.59366e-07
5.02768e-07
5.49153e-07
5.98594e-07
6.51154e-07
7.06877e-07
7.65791e-07
8.27903e-07
8.93197e-07
9.61635e-07
1.03315e-06
1.10765e-06
1.185e-06
1.26506e-06
1.34762e-06
1.43247e-06
1.51933e-06
1.60792e-06
1.6979e-06
1.78888e-06
1.88048e-06
1.97222e-06
2.06365e-06
2.15424e-06
2.24346e-06
2.33075e-06
2.41552e-06
2.49718e-06
2.57513e-06
2.64877e-06
2.71747e-06
2.78064e-06
2.83768e-06
2.88801e-06
2.93108e-06
2.96639e-06
2.99349e-06
3.01194e-06
3.02138e-06
3.02149e-06
3.01203e-06
2.99283e-06
2.96373e-06
2.92466e-06
2.87558e-06
2.81647e-06
2.74735e-06
2.66823e-06
2.57914e-06
2.48005e-06
2.37096e-06
2.25183e-06
2.12261e-06
1.98334e-06
1.83435e-06
1.67623e-06
1.50996e-06
1.33713e-06
1.16007e-06
9.82014e-07
8.07157e-07
6.40623e-07
4.88148e-07
3.55446e-07
2.47259e-07
1.66231e-07
1.13115e-07
7.61713e-08
5.02784e-08
3.35388e-08
2.43856e-08
2.63512e-08
3.05471e-08
3.54142e-08
4.09598e-08
4.72667e-08
5.44269e-08
6.25408e-08
7.17169e-08
8.2073e-08
9.37358e-08
1.06842e-07
1.21539e-07
1.37983e-07
1.56341e-07
1.76791e-07
1.99523e-07
2.24733e-07
2.52631e-07
2.83434e-07
3.1737e-07
3.54674e-07
3.95589e-07
4.40363e-07
4.89249e-07
5.42506e-07
6.00393e-07
6.63173e-07
7.31104e-07
8.0444e-07
8.83431e-07
9.68314e-07
1.05932e-06
1.15665e-06
1.2605e-06
1.37104e-06
1.48843e-06
1.61277e-06
1.74414e-06
1.8826e-06
2.02814e-06
2.18073e-06
2.34029e-06
2.50666e-06
2.67965e-06
2.85901e-06
3.04441e-06
3.23548e-06
3.43176e-06
3.63274e-06
3.83782e-06
4.04634e-06
4.25756e-06
4.47068e-06
4.68483e-06
4.89907e-06
5.1124e-06
5.32378e-06
5.53208e-06
5.73615e-06
5.9348e-06
6.12678e-06
6.31081e-06
6.48559e-06
6.64981e-06
6.80222e-06
6.94156e-06
7.06653e-06
7.17592e-06
7.26856e-06
7.34333e-06
7.39913e-06
7.43492e-06
7.44967e-06
7.44232e-06
7.41189e-06
7.35748e-06
7.27819e-06
7.17309e-06
7.04109e-06
6.88092e-06
6.69104e-06
6.46925e-06
6.21278e-06
5.9198e-06
5.58856e-06
5.21789e-06
4.80806e-06
4.36122e-06
3.88207e-06
3.37872e-06
2.86328e-06
2.35213e-06
1.86542e-06
1.42558e-06
1.05374e-06
7.72566e-07
5.68118e-07
4.12415e-07
3.02458e-07
2.37268e-07
4.51129e-08
5.227e-08
6.0584e-08
7.00735e-08
8.08808e-08
9.31647e-08
1.07099e-07
1.22873e-07
1.40692e-07
1.6078e-07
1.83378e-07
2.08745e-07
2.37163e-07
2.68929e-07
3.04364e-07
3.43807e-07
3.87621e-07
4.36187e-07
4.89906e-07
5.49202e-07
6.14515e-07
6.86305e-07
7.65049e-07
8.51239e-07
9.45381e-07
1.04799e-06
1.1596e-06
1.28075e-06
1.41197e-06
1.5538e-06
1.70679e-06
1.87145e-06
2.04831e-06
2.23787e-06
2.4406e-06
2.65697e-06
2.88739e-06
3.13224e-06
3.39186e-06
3.66654e-06
3.9565e-06
4.26191e-06
4.58286e-06
4.91937e-06
5.27135e-06
5.63866e-06
6.02103e-06
6.41811e-06
6.82941e-06
7.25436e-06
7.69225e-06
8.14225e-06
8.60341e-06
9.07465e-06
9.55478e-06
1.00425e-05
1.05363e-05
1.10346e-05
1.15357e-05
1.20378e-05
1.25389e-05
1.30369e-05
1.35294e-05
1.40143e-05
1.44889e-05
1.49508e-05
1.53973e-05
1.58257e-05
1.62331e-05
1.6617e-05
1.69744e-05
1.73025e-05
1.75983e-05
1.78582e-05
1.80763e-05
1.82486e-05
1.83713e-05
1.84408e-05
1.84537e-05
1.84069e-05
1.82983e-05
1.81231e-05
1.78665e-05
1.75193e-05
1.70699e-05
1.65043e-05
1.58108e-05
1.49802e-05
1.40071e-05
1.2893e-05
1.16482e-05
1.02952e-05
8.8709e-06
7.42858e-06
6.03623e-06
4.78896e-06
3.8213e-06
3.02708e-06
2.40869e-06
2.00172e-06
6.8403e-08
7.93025e-08
9.19821e-08
1.06484e-07
1.23032e-07
1.41874e-07
1.63286e-07
1.87567e-07
2.15046e-07
2.4608e-07
2.81058e-07
3.20401e-07
3.64565e-07
4.14038e-07
4.69349e-07
5.31062e-07
5.99781e-07
6.76146e-07
7.60842e-07
8.54589e-07
9.5815e-07
1.07233e-06
1.19796e-06
1.33593e-06
1.48714e-06
1.65256e-06
1.83315e-06
2.02993e-06
2.24394e-06
2.47623e-06
2.72788e-06
2.99998e-06
3.29363e-06
3.60993e-06
3.94996e-06
4.31482e-06
4.70556e-06
5.12322e-06
5.5688e-06
6.04324e-06
6.54745e-06
7.08224e-06
7.64839e-06
8.24655e-06
8.8773e-06
9.54111e-06
1.02383e-05
1.09692e-05
1.17337e-05
1.25319e-05
1.33636e-05
1.42282e-05
1.51254e-05
1.60543e-05
1.70141e-05
1.80037e-05
1.90218e-05
2.00669e-05
2.11375e-05
2.22316e-05
2.33474e-05
2.44827e-05
2.56352e-05
2.68026e-05
2.79822e-05
2.91695e-05
3.03603e-05
3.15504e-05
3.27354e-05
3.39101e-05
3.50692e-05
3.62068e-05
3.73164e-05
3.83915e-05
3.94275e-05
4.04164e-05
4.13496e-05
4.22172e-05
4.30082e-05
4.37102e-05
4.43089e-05
4.47915e-05
4.51528e-05
4.53833e-05
4.54748e-05
4.53718e-05
4.50253e-05
4.43906e-05
4.34224e-05
4.20815e-05
4.03349e-05
3.8161e-05
3.55554e-05
3.25354e-05
2.91497e-05
2.54992e-05
2.18416e-05
1.88205e-05
1.61541e-05
1.41068e-05
9.02338e-08
1.04819e-07
1.21826e-07
1.41332e-07
1.63655e-07
1.89147e-07
2.18199e-07
2.51242e-07
2.88749e-07
3.31239e-07
3.79279e-07
4.33489e-07
4.9454e-07
5.63163e-07
6.40149e-07
7.26351e-07
8.22686e-07
9.30141e-07
1.04977e-06
1.18271e-06
1.33015e-06
1.49337e-06
1.67372e-06
1.87263e-06
2.0916e-06
2.3322e-06
2.5961e-06
2.88501e-06
3.20072e-06
3.54509e-06
3.92004e-06
4.32754e-06
4.76961e-06
5.24834e-06
5.76582e-06
6.32419e-06
6.9256e-06
7.57222e-06
8.26619e-06
9.00969e-06
9.80481e-06
1.06537e-05
1.15583e-05
1.25206e-05
1.35425e-05
1.46259e-05
1.57724e-05
1.69835e-05
1.82608e-05
1.96055e-05
2.10187e-05
2.25015e-05
2.40544e-05
2.56782e-05
2.73732e-05
2.91394e-05
3.09768e-05
3.2885e-05
3.48634e-05
3.69109e-05
3.90263e-05
4.12079e-05
4.34538e-05
4.57615e-05
4.81281e-05
5.05531e-05
5.30336e-05
5.55669e-05
5.81496e-05
6.07784e-05
6.34496e-05
6.61589e-05
6.89016e-05
7.16727e-05
7.44662e-05
7.72749e-05
8.00905e-05
8.29032e-05
8.57015e-05
8.84715e-05
9.11967e-05
9.38571e-05
9.64286e-05
9.88826e-05
0.000101185
0.000103344
0.00010536
0.000107162
0.000108628
0.000109679
0.000110233
0.000110212
0.000109533
0.000108109
0.000105835
0.000102579
9.81452e-05
9.23037e-05
8.57959e-05
7.90471e-05
1.01601e-07
1.18436e-07
1.38149e-07
1.60858e-07
1.86962e-07
2.16906e-07
2.51188e-07
2.90361e-07
3.35034e-07
3.85884e-07
4.43652e-07
5.09157e-07
5.83293e-07
6.6704e-07
7.61466e-07
8.67734e-07
9.87104e-07
1.12094e-06
1.27073e-06
1.43805e-06
1.62462e-06
1.83227e-06
2.06294e-06
2.31875e-06
2.60189e-06
2.91474e-06
3.25977e-06
3.63961e-06
4.05703e-06
4.51493e-06
5.01631e-06
5.56435e-06
6.16231e-06
6.8136e-06
7.52172e-06
8.29028e-06
9.12297e-06
1.00236e-05
1.09959e-05
1.20439e-05
1.31715e-05
1.43825e-05
1.56811e-05
1.70711e-05
1.85563e-05
2.01408e-05
2.18281e-05
2.3622e-05
2.55261e-05
2.75436e-05
2.9678e-05
3.19323e-05
3.43093e-05
3.68117e-05
3.94421e-05
4.22027e-05
4.50955e-05
4.81223e-05
5.12846e-05
5.45839e-05
5.80211e-05
6.15973e-05
6.5313e-05
6.91688e-05
7.31652e-05
7.73029e-05
8.1582e-05
8.60025e-05
9.05645e-05
9.52681e-05
0.000100113
0.0001051
0.000110228
0.000115497
0.000120906
0.000126455
0.00013214
0.000137961
0.000143911
0.000149987
0.000156179
0.000162477
0.000168868
0.000175333
0.00018185
0.000188393
0.000194929
0.000201479
0.000208119
0.000214782
0.000221356
0.000227798
0.00023407
0.000240125
0.000245886
0.000251185
0.000255675
0.000258632
0.00025858
0.000252751
9.72732e-08
1.1391e-07
1.33504e-07
1.56201e-07
1.82438e-07
2.12707e-07
2.47564e-07
2.87628e-07
3.33593e-07
3.86229e-07
4.46393e-07
5.15034e-07
5.93205e-07
6.82064e-07
7.82886e-07
8.97074e-07
1.02616e-06
1.17183e-06
1.3359e-06
1.52037e-06
1.72739e-06
1.95931e-06
2.21863e-06
2.50808e-06
2.83056e-06
3.1892e-06
3.58734e-06
4.02851e-06
4.5165e-06
5.05529e-06
5.64911e-06
6.30239e-06
7.01981e-06
7.80625e-06
8.66682e-06
9.60683e-06
1.06318e-05
1.17474e-05
1.29595e-05
1.42742e-05
1.56977e-05
1.72361e-05
1.8896e-05
2.06837e-05
2.26058e-05
2.46688e-05
2.68792e-05
2.92436e-05
3.17682e-05
3.44594e-05
3.73235e-05
4.03663e-05
4.35938e-05
4.70115e-05
5.06248e-05
5.44388e-05
5.84585e-05
6.26884e-05
6.71328e-05
7.17956e-05
7.66807e-05
8.17915e-05
8.71309e-05
9.2702e-05
9.85075e-05
0.00010455
0.000110832
0.000117355
0.000124122
0.000131134
0.000138394
0.000145903
0.000153664
0.000161677
0.000169944
0.000178466
0.000187243
0.000196274
0.000205557
0.000215088
0.000224861
0.000234867
0.000245092
0.000255521
0.000266132
0.000276898
0.000287787
0.000298765
0.000309787
0.000320901
0.000332205
0.00034352
0.00035477
0.000365872
0.000376694
0.000386976
0.000396207
0.000403374
0.00040644
0.000401579
7.99818e-08
9.41412e-08
1.10915e-07
1.30453e-07
1.53166e-07
1.79526e-07
2.10063e-07
2.45378e-07
2.86148e-07
3.3313e-07
3.87177e-07
4.4924e-07
5.20383e-07
6.01789e-07
6.94773e-07
8.00795e-07
9.21467e-07
1.05857e-06
1.21407e-06
1.39011e-06
1.58906e-06
1.8135e-06
2.06624e-06
2.35035e-06
2.66916e-06
3.02625e-06
3.42553e-06
3.87118e-06
4.36769e-06
4.91988e-06
5.5329e-06
6.21223e-06
6.96371e-06
7.79349e-06
8.70811e-06
9.71444e-06
1.08197e-05
1.20314e-05
1.33574e-05
1.4806e-05
1.63855e-05
1.81048e-05
1.99729e-05
2.1999e-05
2.41925e-05
2.65631e-05
2.91203e-05
3.1874e-05
3.4834e-05
3.80101e-05
4.14119e-05
4.50492e-05
4.89312e-05
5.30672e-05
5.74662e-05
6.21367e-05
6.70869e-05
7.23247e-05
7.78573e-05
8.36917e-05
8.98342e-05
9.62907e-05
0.000103066
0.000110165
0.000117593
0.000125351
0.000133444
0.000141873
0.00015064
0.000159746
0.000169192
0.000178978
0.000189102
0.000199563
0.000210359
0.000221485
0.000232938
0.000244711
0.000256795
0.000269179
0.000281851
0.000294794
0.000307987
0.000321406
0.000335022
0.000348801
0.000362704
0.000376687
0.000390701
0.000404695
0.00041861
0.000432593
0.000446491
0.000460186
0.000473547
0.000486328
0.000498062
0.000507835
0.000513795
0.000512205
5.71486e-08
6.76192e-08
8.00877e-08
9.46816e-08
1.11735e-07
1.31634e-07
1.54815e-07
1.81779e-07
2.1309e-07
2.49388e-07
2.91398e-07
3.39937e-07
3.95924e-07
4.60392e-07
5.34501e-07
6.19547e-07
7.16979e-07
8.28411e-07
9.55636e-07
1.10065e-06
1.26564e-06
1.45307e-06
1.66559e-06
1.90618e-06
2.17806e-06
2.48478e-06
2.83021e-06
3.21857e-06
3.65444e-06
4.14278e-06
4.68898e-06
5.29882e-06
5.97856e-06
6.73488e-06
7.57496e-06
8.50644e-06
9.53745e-06
1.06766e-05
1.1933e-05
1.33164e-05
1.48367e-05
1.65046e-05
1.83312e-05
2.03279e-05
2.25067e-05
2.48798e-05
2.746e-05
3.02601e-05
3.32934e-05
3.65733e-05
4.01133e-05
4.39271e-05
4.80281e-05
5.243e-05
5.7146e-05
6.21891e-05
6.75721e-05
7.33071e-05
7.94058e-05
8.58793e-05
9.27379e-05
9.99909e-05
0.000107647
0.000115714
0.000124197
0.000133103
0.000142436
0.000152198
0.00016239
0.000173013
0.000184065
0.000195543
0.000207443
0.000219757
0.000232479
0.000245597
0.000259099
0.000272971
0.000287195
0.000301751
0.000316615
0.00033176
0.000347155
0.000362765
0.000378551
0.00039447
0.000410474
0.000426511
0.000442526
0.000458459
0.000474245
0.000489824
0.00050529
0.000520518
0.000535412
0.000549793
0.000563327
0.000575354
0.0005845
0.00058775
3.60192e-08
4.28344e-08
5.09837e-08
6.05596e-08
7.17982e-08
8.49727e-08
1.00396e-07
1.18426e-07
1.39471e-07
1.63997e-07
1.92534e-07
2.25685e-07
2.64135e-07
3.08657e-07
3.60129e-07
4.19538e-07
4.87998e-07
5.6676e-07
6.57227e-07
7.6097e-07
8.79746e-07
1.01551e-06
1.17045e-06
1.34698e-06
1.54777e-06
1.77581e-06
2.03437e-06
2.32704e-06
2.6578e-06
3.031e-06
3.45138e-06
3.92415e-06
4.45496e-06
5.04996e-06
5.7158e-06
6.45969e-06
7.28938e-06
8.21324e-06
9.24022e-06
1.03799e-05
1.16425e-05
1.3039e-05
1.45808e-05
1.62802e-05
1.81501e-05
2.02039e-05
2.24559e-05
2.49207e-05
2.76138e-05
3.0551e-05
3.37486e-05
3.72235e-05
4.09928e-05
4.5074e-05
4.94846e-05
5.42424e-05
5.9365e-05
6.48698e-05
7.07743e-05
7.70951e-05
8.38486e-05
9.10502e-05
9.87145e-05
0.000106855
0.000115484
0.000124612
0.00013425
0.000144403
0.000155079
0.000166281
0.000178011
0.000190267
0.000203048
0.000216346
0.000230154
0.000244459
0.000259248
0.000274502
0.000290199
0.000306315
0.00032282
0.00033968
0.000356856
0.000374306
0.000391982
0.000409829
0.000427789
0.000445797
0.000463787
0.000481683
0.000499408
0.000516883
0.000534035
0.000550935
0.000567542
0.000583747
0.000599351
0.000613945
0.000626634
0.000635324
2.03242e-08
2.42838e-08
2.90348e-08
3.46354e-08
4.1233e-08
4.89986e-08
5.81284e-08
6.88482e-08
8.14171e-08
9.61324e-08
1.13335e-07
1.33413e-07
1.56813e-07
1.84042e-07
2.15678e-07
2.52376e-07
2.94882e-07
3.44037e-07
4.00796e-07
4.66231e-07
5.41555e-07
6.28127e-07
7.27473e-07
8.41304e-07
9.71531e-07
1.12028e-06
1.28994e-06
1.48313e-06
1.70279e-06
1.95216e-06
2.23483e-06
2.55473e-06
2.91623e-06
3.3241e-06
3.78357e-06
4.30036e-06
4.88074e-06
5.53149e-06
6.26003e-06
7.07438e-06
7.98321e-06
8.9959e-06
1.01225e-05
1.13739e-05
1.27617e-05
1.42983e-05
1.59969e-05
1.78715e-05
1.9937e-05
2.2209e-05
2.47042e-05
2.74398e-05
3.04339e-05
3.37053e-05
3.72735e-05
4.11586e-05
4.53812e-05
4.99625e-05
5.49238e-05
6.02868e-05
6.60732e-05
7.23045e-05
7.9002e-05
8.61867e-05
9.38788e-05
0.000102098
0.000110862
0.000120189
0.000130094
0.000140591
0.000151692
0.000163407
0.000175744
0.000188707
0.000202298
0.000216517
0.00023136
0.00024682
0.000262886
0.000279546
0.00029678
0.000314568
0.000332883
0.000351694
0.000370961
0.000390641
0.00041068
0.000431013
0.000451565
0.000472246
0.000492954
0.000513568
0.000533949
0.000553948
0.000573739
0.00059324
0.00061233
0.000630714
0.000647727
0.000661948
1.03755e-08
1.24501e-08
1.49471e-08
1.78993e-08
2.13894e-08
2.55127e-08
3.03795e-08
3.61168e-08
4.28714e-08
5.08125e-08
6.01351e-08
7.10632e-08
8.38545e-08
9.88044e-08
1.16251e-07
1.36581e-07
1.60235e-07
1.87717e-07
2.19597e-07
2.56524e-07
2.99235e-07
3.4856e-07
4.05441e-07
4.70936e-07
5.46238e-07
6.32689e-07
7.31792e-07
8.45234e-07
9.749e-07
1.1229e-06
1.29157e-06
1.48352e-06
1.70165e-06
1.94917e-06
2.22962e-06
2.54692e-06
2.90539e-06
3.30979e-06
3.76534e-06
4.27775e-06
4.85329e-06
5.49878e-06
6.22168e-06
7.03007e-06
7.93275e-06
8.93922e-06
1.00598e-05
1.13054e-05
1.26882e-05
1.42207e-05
1.59166e-05
1.77906e-05
1.9858e-05
2.21353e-05
2.46399e-05
2.739e-05
3.04047e-05
3.37042e-05
3.73094e-05
4.12421e-05
4.55247e-05
5.01804e-05
5.52331e-05
6.07067e-05
6.66262e-05
7.30162e-05
7.99018e-05
8.73079e-05
9.52589e-05
0.000103779
0.000112891
0.000122618
0.000132981
0.000144
0.000155693
0.000168078
0.00018117
0.000194984
0.000209534
0.000224832
0.000240892
0.000257725
0.000275347
0.000293773
0.000313021
0.000333111
0.000354065
0.000375905
0.000398651
0.000422314
0.000446883
0.000472295
0.000498396
0.000524895
0.000551402
0.000577955
0.000604315
0.000629856
0.000653511
0.000673744
4.82885e-09
5.81627e-09
7.00892e-09
8.42348e-09
1.01017e-08
1.20918e-08
1.44498e-08
1.72402e-08
2.05383e-08
2.4431e-08
2.90191e-08
3.44192e-08
4.07656e-08
4.82135e-08
5.69413e-08
6.7154e-08
7.90869e-08
9.30095e-08
1.0923e-07
1.281e-07
1.5002e-07
1.75448e-07
2.04901e-07
2.38968e-07
2.78315e-07
3.23696e-07
3.75964e-07
4.36081e-07
5.05128e-07
5.84322e-07
6.75027e-07
7.78772e-07
8.97268e-07
1.03242e-06
1.18636e-06
1.36146e-06
1.56035e-06
1.78594e-06
2.04148e-06
2.33053e-06
2.65705e-06
3.02537e-06
3.44029e-06
3.90706e-06
4.43141e-06
5.01965e-06
5.67864e-06
6.41585e-06
7.23939e-06
8.15808e-06
9.18143e-06
1.03197e-05
1.1584e-05
1.29861e-05
1.45388e-05
1.62557e-05
1.81514e-05
2.02414e-05
2.25423e-05
2.50715e-05
2.78472e-05
3.08888e-05
3.42165e-05
3.78513e-05
4.18153e-05
4.61313e-05
5.08231e-05
5.59148e-05
6.14315e-05
6.73982e-05
7.38407e-05
8.07847e-05
8.82562e-05
9.62809e-05
0.000104885
0.000114093
0.000123932
0.000134428
0.000145608
0.000157499
0.000170133
0.000183544
0.000197772
0.000212867
0.00022889
0.000245924
0.00026408
0.000283516
0.000304461
0.000327246
0.000352343
0.000380361
0.000411941
0.000447478
0.000486233
0.000527091
0.000569438
0.000610669
0.000647247
0.00067584
2.09692e-09
2.53358e-09
3.06383e-09
3.69521e-09
4.44727e-09
5.34267e-09
6.40775e-09
7.67323e-09
9.1749e-09
1.09544e-08
1.30604e-08
1.5549e-08
1.84857e-08
2.19463e-08
2.60184e-08
3.08031e-08
3.64172e-08
4.29951e-08
5.06913e-08
5.96833e-08
7.01743e-08
8.23972e-08
9.66181e-08
1.13141e-07
1.32311e-07
1.54524e-07
1.80228e-07
2.0993e-07
2.44205e-07
2.83705e-07
3.29165e-07
3.81413e-07
4.41383e-07
5.10122e-07
5.88808e-07
6.78759e-07
7.8145e-07
8.98529e-07
1.03184e-06
1.18341e-06
1.35554e-06
1.55074e-06
1.7718e-06
2.02183e-06
2.30423e-06
2.62277e-06
2.98157e-06
3.38517e-06
3.83855e-06
4.34712e-06
4.91681e-06
5.55406e-06
6.26585e-06
7.05977e-06
7.94405e-06
8.92762e-06
1.00201e-05
1.12319e-05
1.25741e-05
1.40585e-05
1.56976e-05
1.75049e-05
1.94945e-05
2.16814e-05
2.40819e-05
2.67126e-05
2.95915e-05
3.27368e-05
3.61678e-05
3.99043e-05
4.39666e-05
4.83758e-05
5.31532e-05
5.83206e-05
6.39001e-05
6.9914e-05
7.63849e-05
8.33359e-05
9.07905e-05
9.87733e-05
0.00010731
0.000116427
0.000126154
0.000136524
0.000147573
0.000159346
0.000171897
0.000185307
0.000199713
0.000215391
0.000232933
0.000253579
0.00027952
0.000313818
0.000361275
0.00042067
0.000490958
0.000565066
0.000628981
0.000672251
9.94807e-10
1.20424e-09
1.46106e-09
1.76844e-09
2.13625e-09
2.57609e-09
3.10153e-09
3.72846e-09
4.47552e-09
5.36451e-09
6.42094e-09
7.67457e-09
9.1601e-09
1.0918e-08
1.29951e-08
1.54461e-08
1.83341e-08
2.17323e-08
2.57253e-08
3.04106e-08
3.59007e-08
4.2325e-08
4.98321e-08
5.85929e-08
6.88027e-08
8.06854e-08
9.44963e-08
1.10527e-07
1.29108e-07
1.50618e-07
1.75484e-07
2.04191e-07
2.37288e-07
2.75397e-07
3.19217e-07
3.69537e-07
4.27243e-07
4.93333e-07
5.68922e-07
6.5526e-07
7.53745e-07
8.65932e-07
9.93558e-07
1.13855e-06
1.30304e-06
1.4894e-06
1.70024e-06
1.93845e-06
2.20721e-06
2.50998e-06
2.85062e-06
3.2333e-06
3.6626e-06
4.14354e-06
4.68157e-06
5.28264e-06
5.95315e-06
6.70001e-06
7.53063e-06
8.45299e-06
9.47557e-06
1.06075e-05
1.18584e-05
1.32389e-05
1.47601e-05
1.64339e-05
1.82727e-05
2.02894e-05
2.24976e-05
2.49114e-05
2.75454e-05
3.04145e-05
3.35343e-05
3.69204e-05
4.05891e-05
4.45566e-05
4.88396e-05
5.34551e-05
5.84206e-05
6.37538e-05
6.94733e-05
7.55981e-05
8.2148e-05
8.91437e-05
9.6606e-05
0.000104556
0.000113011
0.00012199
0.000131513
0.000141639
0.000152595
0.000165313
0.000182009
0.00020586
0.000242265
0.000295879
0.000377073
0.000489453
0.000598826
0.000665648
3.96823e-14
6.20276e-14
1.04793e-13
1.63237e-13
2.37576e-13
3.27871e-13
4.34195e-13
5.5751e-13
7.01192e-13
8.73366e-13
1.09078e-12
1.38579e-12
1.82024e-12
2.51486e-12
3.71447e-12
5.93756e-12
1.03228e-11
1.93934e-11
3.82465e-11
7.16957e-11
6.59645e-13
9.35989e-13
1.39239e-12
1.99378e-12
2.72895e-12
3.5844e-12
4.54744e-12
5.61296e-12
6.79419e-12
8.13763e-12
9.74623e-12
1.18184e-11
1.47223e-11
1.91489e-11
2.64391e-11
3.93099e-11
6.34654e-11
1.10937e-10
2.04388e-10
3.58604e-10
1.04644e-11
1.36287e-11
1.82101e-11
2.39312e-11
3.06383e-11
3.81239e-11
4.61867e-11
5.46936e-11
6.36533e-11
7.33047e-11
8.42412e-11
9.76042e-11
1.15433e-10
1.41359e-10
1.82052e-10
2.50307e-10
3.71628e-10
5.96971e-10
1.01443e-09
1.64509e-09
1.50013e-10
1.81937e-10
2.24437e-10
2.7422e-10
3.29739e-10
3.88956e-10
4.49838e-10
5.10895e-10
5.71692e-10
6.33332e-10
6.99075e-10
7.75111e-10
8.71975e-10
1.00724e-09
1.21096e-09
1.53676e-09
2.08403e-09
3.03564e-09
4.66865e-09
6.86505e-09
1.92427e-09
2.19937e-09
2.54532e-09
2.9279e-09
3.33218e-09
3.74144e-09
4.13977e-09
4.51536e-09
4.86346e-09
5.18907e-09
5.50976e-09
5.85717e-09
6.28187e-09
6.86183e-09
7.71821e-09
9.04497e-09
1.11575e-08
1.45562e-08
1.98267e-08
2.60087e-08
2.18513e-08
2.37698e-08
2.61e-08
2.85439e-08
3.09797e-08
3.32894e-08
3.53695e-08
3.71478e-08
3.85951e-08
3.97359e-08
4.06675e-08
4.15405e-08
4.25802e-08
4.41055e-08
4.65461e-08
5.04528e-08
5.64902e-08
6.53523e-08
7.71677e-08
8.93503e-08
2.16416e-07
2.25947e-07
2.37509e-07
2.48934e-07
2.594e-07
2.68215e-07
2.74823e-07
2.78876e-07
2.80286e-07
2.79214e-07
2.76153e-07
2.71768e-07
2.67008e-07
2.6303e-07
2.6108e-07
2.62095e-07
2.65978e-07
2.70641e-07
2.72943e-07
2.7811e-07
1.83224e-06
1.84948e-06
1.87504e-06
1.89614e-06
1.90834e-06
1.90841e-06
1.8941e-06
1.86411e-06
1.81879e-06
1.75928e-06
1.68708e-06
1.60476e-06
1.51589e-06
1.42392e-06
1.33173e-06
1.2388e-06
1.1371e-06
1.01148e-06
8.69219e-07
7.83625e-07
1.29e-05
1.26704e-05
1.24669e-05
1.22337e-05
1.19545e-05
1.16189e-05
1.12223e-05
1.07606e-05
1.02339e-05
9.64551e-06
9.00011e-06
8.30466e-06
7.56847e-06
6.79871e-06
6.00146e-06
5.17221e-06
4.28347e-06
3.33283e-06
2.4715e-06
1.99663e-06
7.26191e-05
6.98076e-05
6.70237e-05
6.4161e-05
6.11931e-05
5.8093e-05
5.48517e-05
5.14486e-05
4.78789e-05
4.41425e-05
4.02408e-05
3.61748e-05
3.19439e-05
2.75568e-05
2.30217e-05
1.83964e-05
1.37728e-05
9.50011e-06
6.23971e-06
4.5886e-06
0.000238112
0.000227253
0.000215948
0.000204515
0.000193016
0.000181489
0.000169954
0.000158381
0.0001467
0.000134836
0.000122662
0.000110046
9.67936e-05
8.27585e-05
6.78024e-05
5.20897e-05
3.66419e-05
2.32292e-05
1.3997e-05
9.45699e-06
0.000383651
0.00036842
0.000352106
0.000335273
0.000318147
0.000300865
0.000283449
0.00026587
0.000248022
0.000229749
0.000210836
0.000191028
0.000170001
0.000147428
0.000123074
9.70354e-05
7.03304e-05
4.57292e-05
2.74354e-05
1.77524e-05
0.000496789
0.000480801
0.000462943
0.000443981
0.000424268
0.00040403
0.000383375
0.000362321
0.000340758
0.000318466
0.000295161
0.000270504
0.00024407
0.000215383
0.000184052
0.000149972
0.000113775
7.79367e-05
4.82668e-05
3.11844e-05
0.000578838
0.000564952
0.00054825
0.000529679
0.000509769
0.000488885
0.000467226
0.000444843
0.000421649
0.000397445
0.00037191
0.000344629
0.000315113
0.000282799
0.000247124
0.000207689
0.000164636
0.000119592
7.82222e-05
5.17138e-05
0.000634876
0.000625307
0.000611813
0.000595455
0.000577016
0.000557079
0.00053598
0.000513845
0.000490624
0.000466123
0.000440013
0.000411852
0.000381115
0.000347201
0.000309431
0.000267161
0.000220056
0.000168873
0.000117961
8.17859e-05
0.000670074
0.000666491
0.000657789
0.000644978
0.000629182
0.000611277
0.000591789
0.000570948
0.000548759
0.000525054
0.00049952
0.000471723
0.00044112
0.000407077
0.000368875
0.000325749
0.000277024
0.000222706
0.000165695
0.000120531
0.000689121
0.000692625
0.000689883
0.000681578
0.000669231
0.000654089
0.000636908
0.000618045
0.000597572
0.000575363
0.000551138
0.000524484
0.000494877
0.000461683
0.000424177
0.000381564
0.000333041
0.000278156
0.000218666
0.00016709
0.000696368
0.000707408
0.000711342
0.000708155
0.000699776
0.000687858
0.000673411
0.000656937
0.000638594
0.000618304
0.000595825
0.000570778
0.000542667
0.000510891
0.000474752
0.000433481
0.000386302
0.000332648
0.000273554
0.000219104
0.000696005
0.0007143
0.000725081
0.000727268
0.000723117
0.00071465
0.000703136
0.00068924
0.000673222
0.000655066
0.000634569
0.000611383
0.000585043
0.000554982
0.000520546
0.000481034
0.000435769
0.000384303
0.000327449
0.000273479
0.000692215
0.000716743
0.000733861
0.000741248
0.000741276
0.000736243
0.000727654
0.000716342
0.000702677
0.000686711
0.000668282
0.000647069
0.00062263
0.000594424
0.000561841
0.000524245
0.000481084
0.000432131
0.000378396
0.000327204
4.18275e-162
3.33958e-162
2.33147e-162
1.49223e-162
9.10666e-163
5.5596e-163
3.63993e-163
2.78975e-163
2.68648e-163
3.30543e-163
5.01441e-163
8.77597e-163
1.65348e-162
3.17842e-162
6.01789e-162
1.09679e-161
1.88999e-161
3.02239e-161
4.37331e-161
5.49124e-161
1.81488e-160
1.42956e-160
9.86975e-161
6.25816e-161
3.78983e-161
2.30059e-161
1.50213e-161
1.15222e-161
1.1132e-161
1.37505e-161
2.09472e-161
3.68332e-161
6.97675e-161
1.349e-160
2.57065e-160
4.71898e-160
8.19852e-160
1.32351e-159
1.93648e-159
2.46466e-159
7.57447e-159
5.87966e-159
4.01074e-159
2.51816e-159
1.51284e-159