/*--------------------------------*- C++ -*----------------------------------*\
| =========                 |                                                 |
| \\      /  F ield         | OpenFOAM: The Open Source CFD Toolbox           |
|  \\    /   O peration     | Version:  2.1.0                                 |
|   \\  /    A nd           | Web:      www.OpenFOAM.org                      |
|    \\/     M anipulation  |                                                 |
\*---------------------------------------------------------------------------*/
FoamFile
{
    version     2.0;
    format      ascii;
    class       volScalarField;
    location    "0.21";
    object      nut;
}
// * * * * * * * * * * * * * * * * * * * * * * * * * * * * * * * * * * * * * //

dimensions      [0 2 -1 0 0 0 0];

internalField   nonuniform List<scalar> 
6400
(
6.82449e-06
6.83925e-06
6.84832e-06
6.86057e-06
6.87193e-06
6.88647e-06
6.89816e-06
6.91377e-06
6.92603e-06
6.94211e-06
6.95516e-06
6.97146e-06
6.98541e-06
7.00188e-06
7.01677e-06
7.03348e-06
7.04936e-06
7.06647e-06
7.08334e-06
7.10106e-06
7.119e-06
7.1375e-06
7.15652e-06
7.17594e-06
7.1961e-06
7.21654e-06
7.23786e-06
7.25943e-06
7.28197e-06
7.30477e-06
7.32858e-06
7.35273e-06
7.3779e-06
7.4035e-06
7.43014e-06
7.45727e-06
7.48539e-06
7.51403e-06
7.54353e-06
7.57344e-06
7.60399e-06
7.63485e-06
7.66609e-06
7.69746e-06
7.72895e-06
7.7603e-06
7.79147e-06
7.82221e-06
7.85241e-06
7.88179e-06
7.90981e-06
7.93546e-06
7.95868e-06
7.98288e-06
8.00558e-06
8.02843e-06
8.05014e-06
8.07137e-06
8.09184e-06
8.11197e-06
8.13113e-06
8.14973e-06
8.16704e-06
8.18333e-06
8.19806e-06
8.2111e-06
8.22124e-06
8.22903e-06
8.23281e-06
8.23374e-06
8.22965e-06
8.2221e-06
8.20927e-06
8.19269e-06
8.17139e-06
8.1471e-06
8.11995e-06
8.0921e-06
8.06467e-06
8.04001e-06
8.01885e-06
8.00076e-06
7.98301e-06
7.96659e-06
7.95822e-06
7.95712e-06
7.95898e-06
7.95443e-06
7.9276e-06
7.84414e-06
7.64621e-06
7.21452e-06
6.35252e-06
4.85846e-06
2.81209e-06
1.74203e-06
1.96606e-06
3.29943e-06
3.63138e-06
4.01932e-06
7.23554e-05
7.27273e-05
7.27814e-05
7.30128e-05
7.30756e-05
7.32609e-05
7.33412e-05
7.34958e-05
7.35902e-05
7.37233e-05
7.38259e-05
7.3943e-05
7.40482e-05
7.41527e-05
7.42559e-05
7.43496e-05
7.44477e-05
7.4532e-05
7.46231e-05
7.46991e-05
7.47827e-05
7.48525e-05
7.49296e-05
7.49931e-05
7.5063e-05
7.51203e-05
7.51824e-05
7.52325e-05
7.52854e-05
7.53268e-05
7.53686e-05
7.53992e-05
7.54274e-05
7.5444e-05
7.54588e-05
7.54632e-05
7.54635e-05
7.54541e-05
7.54394e-05
7.54142e-05
7.53784e-05
7.53287e-05
7.52644e-05
7.51817e-05
7.50798e-05
7.49541e-05
7.48034e-05
7.46232e-05
7.4412e-05
7.41697e-05
7.39049e-05
7.35944e-05
7.3017e-05
7.23978e-05
7.17401e-05
7.10478e-05
7.0319e-05
6.95498e-05
6.87395e-05
6.78988e-05
6.70162e-05
6.61023e-05
6.51469e-05
6.4155e-05
6.31196e-05
6.20516e-05
6.09364e-05
5.97732e-05
5.85585e-05
5.72949e-05
5.59739e-05
5.46007e-05
5.31676e-05
5.16801e-05
5.01336e-05
4.85342e-05
4.68808e-05
4.51802e-05
4.34344e-05
4.16513e-05
3.9836e-05
3.79903e-05
3.6108e-05
3.41948e-05
3.2216e-05
3.01794e-05
2.80686e-05
2.58757e-05
2.35983e-05
2.12396e-05
1.88317e-05
1.64212e-05
1.40842e-05
1.19349e-05
9.95616e-06
8.16052e-06
6.76467e-06
5.82278e-06
5.37648e-06
6.67693e-06
0.000110453
0.000110556
0.000110592
0.000110585
0.0001106
0.00011056
0.000110557
0.000110492
0.000110474
0.000110388
0.000110351
0.000110244
0.000110184
0.000110056
0.000109968
0.000109817
0.000109699
0.000109523
0.000109372
0.000109168
0.000108982
0.000108753
0.00010854
0.000108287
0.000108044
0.000107765
0.000107493
0.00010719
0.000106889
0.000106559
0.000106227
0.00010587
0.000105506
0.00010512
0.000104717
0.000104288
0.000103838
0.00010336
0.000102857
0.000102325
0.000101772
0.000101191
0.000100582
9.99362e-05
9.92556e-05
9.85313e-05
9.77621e-05
9.69412e-05
9.60391e-05
9.46619e-05
9.3273e-05
9.1825e-05
9.03684e-05
8.88671e-05
8.73454e-05
8.57884e-05
8.42113e-05
8.26033e-05
8.09765e-05
7.93356e-05
7.76449e-05
7.594e-05
7.41999e-05
7.24395e-05
7.06509e-05
6.88409e-05
6.70068e-05
6.51539e-05
6.3277e-05
6.13813e-05
5.94606e-05
5.75201e-05
5.55534e-05
5.35653e-05
5.15512e-05
4.95158e-05
4.74574e-05
4.53819e-05
4.32909e-05
4.11921e-05
3.90905e-05
3.69959e-05
3.49165e-05
3.2865e-05
3.08564e-05
2.8897e-05
2.69925e-05
2.5145e-05
2.335e-05
2.16012e-05
1.98697e-05
1.81767e-05
1.64803e-05
1.47343e-05
1.29312e-05
1.11325e-05
9.49183e-06
8.11825e-06
7.72683e-06
1.12519e-05
0.00013088
0.000130413
0.000130228
0.00012982
0.000129627
0.000129204
0.000128979
0.000128543
0.000128278
0.000127829
0.000127519
0.000127053
0.000126698
0.000126211
0.000125809
0.000125294
0.000124842
0.000124294
0.000123788
0.000123196
0.000122597
0.000121607
0.000120624
0.000119595
0.000118573
0.00011751
0.000116446
0.000115347
0.000114242
0.000113103
0.000111956
0.000110776
0.000109584
0.000108364
0.000107126
0.000105859
0.000104575
0.000103261
0.000101929
0.000100567
9.9185e-05
9.77744e-05
9.63422e-05
9.4883e-05
9.34013e-05
9.18937e-05
9.03553e-05
8.88015e-05
8.72433e-05
8.56476e-05
8.40545e-05
8.24283e-05
8.0802e-05
7.9148e-05
7.74854e-05
7.5797e-05
7.40948e-05
7.23677e-05
7.06242e-05
6.88631e-05
6.70856e-05
6.52943e-05
6.34887e-05
6.16726e-05
5.98464e-05
5.80148e-05
5.61802e-05
5.43474e-05
5.25198e-05
5.07028e-05
4.88999e-05
4.71175e-05
4.53583e-05
4.36285e-05
4.19301e-05
4.02681e-05
3.86437e-05
3.7059e-05
3.55135e-05
3.40074e-05
3.25373e-05
3.10987e-05
2.96866e-05
2.83106e-05
2.69404e-05
2.55801e-05
2.42167e-05
2.28546e-05
2.14804e-05
2.00913e-05
1.86809e-05
1.72523e-05
1.57974e-05
1.43113e-05
1.27819e-05
1.13263e-05
1.00601e-05
9.5391e-06
1.23877e-05
1.2887e-05
0.000130648
0.000130473
0.000130125
0.000129758
0.000128934
0.000128181
0.000127222
0.000126311
0.000125304
0.000124308
0.000123273
0.000122221
0.000121158
0.000120062
0.000118967
0.000117835
0.000116704
0.000115533
0.000114367
0.00011316
0.000111956
0.000110722
0.000109491
0.00010822
0.000106954
0.000105651
0.00010435
0.000103017
0.000101684
0.000100322
9.89585e-05
9.75677e-05
9.61621e-05
9.47473e-05
9.33305e-05
9.18788e-05
9.04295e-05
8.89544e-05
8.74765e-05
8.59785e-05
8.44752e-05
8.29558e-05
8.1431e-05
7.98937e-05
7.83523e-05
7.68024e-05
7.52511e-05
7.36971e-05
7.21432e-05
7.05896e-05
6.90385e-05
6.74837e-05
6.59329e-05
6.43808e-05
6.28364e-05
6.12957e-05
5.97677e-05
5.82481e-05
5.67444e-05
5.5253e-05
5.37805e-05
5.23254e-05
5.08923e-05
4.94807e-05
4.80931e-05
4.67294e-05
4.53908e-05
4.40766e-05
4.27861e-05
4.1513e-05
4.02612e-05
3.90375e-05
3.78141e-05
3.66116e-05
3.54084e-05
3.42167e-05
3.30224e-05
3.18298e-05
3.06296e-05
2.94274e-05
2.8217e-05
2.70111e-05
2.5797e-05
2.45859e-05
2.33732e-05
2.2177e-05
2.09969e-05
1.9835e-05
1.86915e-05
1.75834e-05
1.65126e-05
1.5488e-05
1.45099e-05
1.35856e-05
1.27357e-05
1.21423e-05
1.21384e-05
1.42223e-05
1.43897e-05
1.46056e-05
0.000116956
0.000116156
0.00011566
0.000114947
0.000113996
0.000112986
0.000111893
0.000110762
0.000109615
0.000108428
0.000107255
0.000106036
0.000104844
0.000103605
0.000102382
0.000101143
9.99172e-05
9.86588e-05
9.74238e-05
9.61572e-05
9.49161e-05
9.3647e-05
9.23994e-05
9.11212e-05
8.98613e-05
8.85667e-05
8.7286e-05
8.59745e-05
8.46707e-05
8.33396e-05
8.20229e-05
8.06838e-05
7.93561e-05
7.8012e-05
7.66757e-05
7.53273e-05
7.39882e-05
7.26404e-05
7.13033e-05
6.99621e-05
6.86326e-05
6.73034e-05
6.59875e-05
6.46759e-05
6.33793e-05
6.20905e-05
6.08183e-05
5.95564e-05
5.83111e-05
5.70779e-05
5.5862e-05
5.46594e-05
5.34736e-05
5.23009e-05
5.11424e-05
4.9998e-05
4.88743e-05
4.77628e-05
4.66668e-05
4.55819e-05
4.45091e-05
4.34436e-05
4.23872e-05
4.13352e-05
4.02883e-05
3.92431e-05
3.82016e-05
3.71607e-05
3.61214e-05
3.50815e-05
3.4043e-05
3.30051e-05
3.19736e-05
3.09518e-05
2.99397e-05
2.89424e-05
2.7961e-05
2.70052e-05
2.6072e-05
2.51774e-05
2.43052e-05
2.34608e-05
2.26499e-05
2.18685e-05
2.11293e-05
2.04213e-05
1.97458e-05
1.91018e-05
1.8496e-05
1.79397e-05
1.74381e-05
1.7003e-05
1.6648e-05
1.64215e-05
1.64834e-05
1.6238e-05
1.6018e-05
1.59522e-05
1.63325e-05
1.32739e-05
0.000100289
9.90081e-05
9.84459e-05
9.74998e-05
9.66145e-05
9.55118e-05
9.45057e-05
9.33455e-05
9.22873e-05
9.11088e-05
9.00254e-05
8.88424e-05
8.77451e-05
8.65632e-05
8.54582e-05
8.42829e-05
8.31725e-05
8.20054e-05
8.0896e-05
7.97392e-05
7.8634e-05
7.74895e-05
7.63918e-05
7.52649e-05
7.41812e-05
7.30651e-05
7.19868e-05
7.0888e-05
6.98196e-05
6.8735e-05
6.76816e-05
6.66151e-05
6.55752e-05
6.45244e-05
6.34952e-05
6.24576e-05
6.14376e-05
6.0406e-05
5.93935e-05
5.83789e-05
5.73675e-05
5.63586e-05
5.53526e-05
5.43474e-05
5.3344e-05
5.23402e-05
5.13369e-05
5.03321e-05
4.93263e-05
4.83188e-05
4.73095e-05
4.62993e-05
4.52865e-05
4.42743e-05
4.32628e-05
4.22545e-05
4.10368e-05
3.97839e-05
3.85576e-05
3.73677e-05
3.62039e-05
3.50781e-05
3.39808e-05
3.2921e-05
3.18904e-05
3.08944e-05
2.99304e-05
2.90004e-05
2.81055e-05
2.72443e-05
2.64222e-05
2.56362e-05
2.48969e-05
2.4195e-05
2.35423e-05
2.29268e-05
2.23664e-05
2.18443e-05
2.13715e-05
2.09328e-05
2.05332e-05
2.01566e-05
1.98212e-05
1.95024e-05
1.92195e-05
1.89434e-05
1.87037e-05
1.84691e-05
1.82552e-05
1.80566e-05
1.78738e-05
1.77137e-05
1.75933e-05
1.75001e-05
1.74121e-05
1.74653e-05
1.75086e-05
1.77875e-05
1.83404e-05
1.42103e-05
8.58558e-05
8.42598e-05
8.37525e-05
8.27501e-05
8.20462e-05
8.10061e-05
8.0223e-05
7.91897e-05
7.8374e-05
7.73656e-05
7.65376e-05
7.55564e-05
7.47237e-05
7.37662e-05
7.29311e-05
7.19895e-05
7.11547e-05
7.02215e-05
6.9387e-05
6.84535e-05
6.76165e-05
6.6692e-05
6.58348e-05
6.49096e-05
6.3922e-05
6.25389e-05
6.12793e-05
5.99425e-05
5.87251e-05
5.74399e-05
5.62681e-05
5.50387e-05
5.39196e-05
5.27508e-05
5.16892e-05
5.05844e-05
4.95823e-05
4.85418e-05
4.75996e-05
4.66243e-05
4.57422e-05
4.48257e-05
4.39992e-05
4.31401e-05
4.23671e-05
4.15632e-05
4.08408e-05
4.00887e-05
3.94134e-05
3.87095e-05
3.80761e-05
3.74172e-05
3.68207e-05
3.62032e-05
3.56412e-05
3.50627e-05
3.4532e-05
3.39897e-05
3.3487e-05
3.29752e-05
3.24961e-05
3.20099e-05
3.15516e-05
3.1088e-05
3.065e-05
3.02161e-05
2.9818e-05
2.94158e-05
2.90374e-05
2.86658e-05
2.83142e-05
2.79726e-05
2.76477e-05
2.73341e-05
2.70342e-05
2.67455e-05
2.64687e-05
2.62002e-05
2.59404e-05
2.56895e-05
2.54343e-05
2.5184e-05
2.49267e-05
2.46681e-05
2.4401e-05
2.41257e-05
2.38366e-05
2.35331e-05
2.32087e-05
2.28655e-05
2.25037e-05
2.21404e-05
2.18051e-05
2.15157e-05
2.12419e-05
2.11546e-05
2.12631e-05
2.15095e-05
2.185e-05
1.84755e-05
7.01356e-05
6.80424e-05
6.71922e-05
6.55991e-05
6.47203e-05
6.32077e-05
6.23347e-05
6.08861e-05
6.00234e-05
5.86396e-05
5.77935e-05
5.6476e-05
5.56529e-05
5.44034e-05
5.36095e-05
5.243e-05
5.16704e-05
5.05636e-05
4.9842e-05
4.88084e-05
4.81264e-05
4.7168e-05
4.65319e-05
4.56491e-05
4.50634e-05
4.42604e-05
4.3739e-05
4.30207e-05
4.25615e-05
4.19246e-05
4.15249e-05
4.09644e-05
4.06185e-05
4.01286e-05
3.98305e-05
3.94048e-05
3.91508e-05
3.87835e-05
3.85682e-05
3.82515e-05
3.80697e-05
3.77966e-05
3.76436e-05
3.74082e-05
3.728e-05
3.70775e-05
3.69707e-05
3.6794e-05
3.66999e-05
3.65726e-05
3.64878e-05
3.63899e-05
3.62934e-05
3.62279e-05
3.61605e-05
3.61115e-05
3.60689e-05
3.60387e-05
3.6021e-05
3.60116e-05
3.60178e-05
3.60299e-05
3.60593e-05
3.60933e-05
3.61439e-05
3.61988e-05
3.62707e-05
3.63469e-05
3.64404e-05
3.65388e-05
3.66538e-05
3.6774e-05
3.69099e-05
3.70516e-05
3.7209e-05
3.73723e-05
3.75478e-05
3.77275e-05
3.79146e-05
3.81011e-05
3.82882e-05
3.847e-05
3.86482e-05
3.88151e-05
3.897e-05
3.90953e-05
3.91877e-05
3.92338e-05
3.92245e-05
3.91482e-05
3.89965e-05
3.8762e-05
3.84465e-05
3.80571e-05
3.76148e-05
3.71747e-05
3.68605e-05
3.69302e-05
3.71526e-05
3.52722e-05
5.48629e-05
5.30534e-05
5.23357e-05
5.09879e-05
5.03448e-05
4.90706e-05
4.84943e-05
4.73015e-05
4.67883e-05
4.56827e-05
4.52289e-05
4.42146e-05
4.38166e-05
4.28965e-05
4.25504e-05
4.17258e-05
4.14276e-05
4.06986e-05
4.04438e-05
3.98095e-05
3.95935e-05
3.90521e-05
3.88702e-05
3.84184e-05
3.82655e-05
3.78991e-05
3.777e-05
3.74827e-05
3.73717e-05
3.71566e-05
3.70578e-05
3.68988e-05
3.68221e-05
3.67355e-05
3.66691e-05
3.6608e-05
3.65696e-05
3.65408e-05
3.65331e-05
3.65261e-05
3.65463e-05
3.65607e-05
3.66059e-05
3.66413e-05
3.67097e-05
3.6766e-05
3.68565e-05
3.69339e-05
3.70459e-05
3.71447e-05
3.72762e-05
3.73965e-05
3.75466e-05
3.76902e-05
3.78593e-05
3.80249e-05
3.82134e-05
3.8401e-05
3.861e-05
3.88195e-05
3.90492e-05
3.92809e-05
3.9532e-05
3.97864e-05
4.00597e-05
4.03387e-05
4.06364e-05
4.09418e-05
4.12662e-05
4.16e-05
4.19527e-05
4.23167e-05
4.27005e-05
4.30974e-05
4.35151e-05
4.39479e-05
4.44041e-05
4.48768e-05
4.5374e-05
4.58898e-05
4.64311e-05
4.69931e-05
4.75814e-05
4.81923e-05
4.88306e-05
4.95006e-05
5.02066e-05
5.09522e-05
5.17471e-05
5.25915e-05
5.34974e-05
5.44657e-05
5.55093e-05
5.66296e-05
5.78371e-05
5.91253e-05
6.04659e-05
6.17236e-05
6.24839e-05
6.25289e-05
5.7242e-05
5.53475e-05
5.45921e-05
5.31707e-05
5.24764e-05
5.11291e-05
5.0491e-05
4.92253e-05
4.86407e-05
4.74617e-05
4.69329e-05
4.58413e-05
4.53703e-05
4.43663e-05
4.39541e-05
4.30371e-05
4.26835e-05
4.18523e-05
4.15558e-05
4.08085e-05
4.05662e-05
3.99001e-05
3.97082e-05
3.9125e-05
3.8969e-05
3.84711e-05
3.83421e-05
3.79271e-05
3.78191e-05
3.74825e-05
3.73904e-05
3.71273e-05
3.70461e-05
3.68506e-05
3.67758e-05
3.66342e-05
3.65662e-05
3.64933e-05
3.64348e-05
3.63699e-05
3.63414e-05
3.63049e-05
3.63025e-05
3.62871e-05
3.63084e-05
3.63139e-05
3.63573e-05
3.63835e-05
3.6448e-05
3.64953e-05
3.65801e-05
3.66486e-05
3.67531e-05
3.68435e-05
3.69673e-05
3.70776e-05
3.72212e-05
3.73515e-05
3.75122e-05
3.76627e-05
3.78406e-05
3.80112e-05
3.82061e-05
3.83965e-05
3.86078e-05
3.88178e-05
3.90458e-05
3.92748e-05
3.95193e-05
3.97666e-05
4.00287e-05
4.02949e-05
4.05742e-05
4.08586e-05
4.11552e-05
4.1458e-05
4.17728e-05
4.20953e-05
4.24306e-05
4.27755e-05
4.31348e-05
4.35062e-05
4.38947e-05
4.42996e-05
4.47262e-05
4.51758e-05
4.56538e-05
4.61598e-05
4.66977e-05
4.72766e-05
4.79066e-05
4.85938e-05
4.93499e-05
5.01859e-05
5.11216e-05
5.21838e-05
5.34048e-05
5.47799e-05
5.60522e-05
5.66336e-05
7.73684e-05
7.52009e-05
7.43155e-05
7.26541e-05
7.17224e-05
7.01512e-05
6.91764e-05
6.76884e-05
6.66796e-05
6.52402e-05
6.42308e-05
6.28374e-05
6.18392e-05
6.04914e-05
5.95114e-05
5.82135e-05
5.72585e-05
5.60145e-05
5.50909e-05
5.39041e-05
5.30179e-05
5.18911e-05
5.10475e-05
4.99834e-05
4.91862e-05
4.81882e-05
4.74357e-05
4.65028e-05
4.57985e-05
4.49315e-05
4.42778e-05
4.34784e-05
4.28794e-05
4.21574e-05
4.16193e-05
4.09704e-05
4.04889e-05
3.99084e-05
3.94781e-05
3.89603e-05
3.85768e-05
3.81151e-05
3.77747e-05
3.73624e-05
3.70594e-05
3.66895e-05
3.64184e-05
3.6085e-05
3.58403e-05
3.55377e-05
3.53152e-05
3.50388e-05
3.48261e-05
3.45733e-05
3.44036e-05
3.41602e-05
3.40018e-05
3.38066e-05
3.36476e-05
3.34629e-05
3.33307e-05
3.31768e-05
3.30556e-05
3.29247e-05
3.28151e-05
3.27029e-05
3.2605e-05
3.25074e-05
3.24157e-05
3.23229e-05
3.22312e-05
3.21356e-05
3.20384e-05
3.1935e-05
3.1827e-05
3.17099e-05
3.15853e-05
3.14502e-05
3.13067e-05
3.11531e-05
3.09915e-05
3.0821e-05
3.06445e-05
3.04636e-05
3.02799e-05
3.00966e-05
2.99172e-05
2.97467e-05
2.95917e-05
2.94505e-05
2.93234e-05
2.92376e-05
2.91804e-05
2.91735e-05
2.92245e-05
2.93806e-05
2.9689e-05
3.02118e-05
3.08941e-05
2.83825e-05
9.02685e-05
8.88026e-05
8.82826e-05
8.73227e-05
8.65888e-05
8.55643e-05
8.47398e-05
8.3706e-05
8.28453e-05
8.18265e-05
8.09553e-05
7.99576e-05
7.90839e-05
7.81067e-05
7.72333e-05
7.62737e-05
7.54008e-05
7.44553e-05
7.3582e-05
7.26465e-05
7.17707e-05
7.0841e-05
6.99594e-05
6.90287e-05
6.81416e-05
6.71978e-05
6.63065e-05
6.53608e-05
6.4446e-05
6.34886e-05
6.25498e-05
6.14795e-05
6.00868e-05
5.8676e-05
5.73289e-05
5.59632e-05
5.46658e-05
5.33493e-05
5.2106e-05
5.08454e-05
4.96607e-05
4.84588e-05
4.73334e-05
4.61928e-05
4.51274e-05
4.40435e-05
4.30324e-05
4.2004e-05
4.1046e-05
4.00718e-05
3.91657e-05
3.82444e-05
3.73893e-05
3.65204e-05
3.57161e-05
3.49003e-05
3.41462e-05
3.33798e-05
3.26703e-05
3.1961e-05
3.13014e-05
3.06409e-05
3.00233e-05
2.94052e-05
2.88241e-05
2.82429e-05
2.76941e-05
2.71476e-05
2.66417e-05
2.61391e-05
2.5677e-05
2.52304e-05
2.48022e-05
2.43884e-05
2.39962e-05
2.36137e-05
2.32523e-05
2.2897e-05
2.25603e-05
2.22319e-05
2.19248e-05
2.16304e-05
2.13543e-05
2.10845e-05
2.08258e-05
2.05781e-05
2.03438e-05
2.01297e-05
1.99332e-05
1.97588e-05
1.95966e-05
1.94431e-05
1.9315e-05
1.9215e-05
1.91704e-05
1.92246e-05
1.94484e-05
1.99493e-05
2.05908e-05
1.71223e-05
0.000105779
0.000104625
0.000104111
0.000103263
0.0001024
0.000101362
0.000100363
9.92447e-05
9.81856e-05
9.70364e-05
9.59523e-05
9.47886e-05
9.36873e-05
9.25148e-05
9.13995e-05
9.0221e-05
8.90938e-05
8.79113e-05
8.67752e-05
8.55919e-05
8.44491e-05
8.32684e-05
8.21208e-05
8.0945e-05
7.9797e-05
7.86265e-05
7.74821e-05
7.63209e-05
7.51835e-05
7.40337e-05
7.29078e-05
7.17747e-05
7.06566e-05
6.95307e-05
6.84246e-05
6.73102e-05
6.62128e-05
6.51143e-05
6.40296e-05
6.29434e-05
6.18684e-05
6.07912e-05
5.97218e-05
5.86444e-05
5.75817e-05
5.65162e-05
5.5451e-05
5.43859e-05
5.33202e-05
5.22521e-05
5.11819e-05
5.01077e-05
4.90301e-05
4.79474e-05
4.68614e-05
4.5771e-05
4.46786e-05
4.35842e-05
4.2181e-05
4.07892e-05
3.94408e-05
3.81574e-05
3.69167e-05
3.57347e-05
3.46054e-05
3.35297e-05
3.25133e-05
3.15444e-05
3.06321e-05
2.97613e-05
2.89514e-05
2.8176e-05
2.74587e-05
2.67615e-05
2.61133e-05
2.54808e-05
2.48978e-05
2.43267e-05
2.37884e-05
2.32496e-05
2.2736e-05
2.22359e-05
2.17701e-05
2.13206e-05
2.08697e-05
2.04199e-05
1.99623e-05
1.9542e-05
1.91283e-05
1.87406e-05
1.83276e-05
1.79486e-05
1.75899e-05
1.72679e-05
1.69681e-05
1.67901e-05
1.67143e-05
1.6742e-05
1.73862e-05
1.38097e-05
0.000122774
0.000122065
0.000121626
0.000121006
0.000120099
0.000119159
0.000118103
0.000117029
0.000115916
0.000114777
0.000113634
0.000112456
0.000111291
0.000110084
0.000108898
0.000107669
0.000106463
0.000105215
0.000103983
0.000102727
0.000101473
0.000100219
9.89507e-05
9.76796e-05
9.64079e-05
9.51273e-05
9.38484e-05
9.25526e-05
9.12592e-05
8.9948e-05
8.86403e-05
8.73163e-05
8.59902e-05
8.46462e-05
8.33011e-05
8.19362e-05
8.05706e-05
7.91951e-05
7.782e-05
7.64356e-05
7.50534e-05
7.36655e-05
7.22816e-05
7.08955e-05
6.95163e-05
6.81388e-05
6.67708e-05
6.54084e-05
6.40585e-05
6.27176e-05
6.13922e-05
6.00787e-05
5.87831e-05
5.75011e-05
5.62375e-05
5.49896e-05
5.37614e-05
5.25509e-05
5.13539e-05
5.01678e-05
4.90061e-05
4.78545e-05
4.67248e-05
4.56102e-05
4.45118e-05
4.34265e-05
4.23535e-05
4.12911e-05
4.02373e-05
3.91904e-05
3.81494e-05
3.71154e-05
3.60892e-05
3.50691e-05
3.40505e-05
3.30319e-05
3.20156e-05
3.10051e-05
3.00059e-05
2.9006e-05
2.80097e-05
2.70105e-05
2.60186e-05
2.50309e-05
2.40489e-05
2.30784e-05
2.21096e-05
2.11444e-05
2.01865e-05
1.92666e-05
1.83623e-05
1.7466e-05
1.6627e-05
1.587e-05
1.54142e-05
1.54996e-05
1.5124e-05
1.50628e-05
1.51744e-05
1.30162e-05
0.000135806
0.000135721
0.000135423
0.000135137
0.000134367
0.000133686
0.00013278
0.000131935
0.000130982
0.000130052
0.000129072
0.000128085
0.00012708
0.000126049
0.000125016
0.000123947
0.000122882
0.000121777
0.000120678
0.00011954
0.000118404
0.000117233
0.000116058
0.000114854
0.000113644
0.000112414
0.000111175
0.000109909
0.000108638
0.000107341
0.000106038
0.00010471
0.000103371
0.000102007
0.000100634
9.92382e-05
9.78282e-05
9.63971e-05
9.49621e-05
9.35074e-05
9.20338e-05
9.05456e-05
8.90426e-05
8.75231e-05
8.59912e-05
8.44429e-05
8.28835e-05
8.13093e-05
7.9726e-05
7.81302e-05
7.65283e-05
7.49175e-05
7.33048e-05
7.16885e-05
7.00739e-05
6.84567e-05
6.68427e-05
6.52286e-05
6.36196e-05
6.20139e-05
6.04195e-05
5.88346e-05
5.72691e-05
5.57213e-05
5.41981e-05
5.26985e-05
5.12274e-05
4.97845e-05
4.83721e-05
4.69889e-05
4.56352e-05
4.43094e-05
4.30113e-05
4.17369e-05
4.04782e-05
3.92358e-05
3.80167e-05
3.67903e-05
3.55741e-05
3.43397e-05
3.31034e-05
3.18541e-05
3.05994e-05
2.9308e-05
2.7966e-05
2.65838e-05
2.52043e-05
2.38126e-05
2.23636e-05
2.08471e-05
1.93219e-05
1.78118e-05
1.62983e-05
1.47504e-05
1.33286e-05
1.23036e-05
1.18762e-05
1.32173e-05
1.33646e-05
1.39044e-05
0.00013388
0.000133493
0.000133339
0.000132986
0.000132827
0.000132459
0.000132269
0.000131887
0.00013166
0.000131264
0.000130996
0.000130585
0.000130278
0.000129849
0.000129502
0.000129054
0.000128667
0.000128193
0.000127763
0.000127259
0.000126782
0.000126241
0.000125712
0.000125124
0.000124439
0.000123456
0.000122466
0.000121441
0.00012041
0.00011935
0.000118282
0.000117189
0.000116087
0.000114963
0.000113821
0.000112656
0.000111473
0.000110265
0.000109038
0.000107785
0.000106511
0.000105211
0.000103888
0.000102538
0.000101165
9.97642e-05
9.83385e-05
9.68839e-05
9.54041e-05
9.3895e-05
9.23613e-05
9.07988e-05
8.92025e-05
8.75867e-05
8.59686e-05
8.43029e-05
8.26316e-05
8.09269e-05
7.92094e-05
7.74655e-05
7.57064e-05
7.39241e-05
7.21221e-05
7.02953e-05
6.84521e-05
6.65885e-05
6.47096e-05
6.28143e-05
6.09085e-05
5.8992e-05
5.70715e-05
5.51481e-05
5.32297e-05
5.13186e-05
4.94223e-05
4.7543e-05
4.56881e-05
4.38598e-05
4.20639e-05
4.03003e-05
3.8571e-05
3.68751e-05
3.52153e-05
3.35881e-05
3.19833e-05
3.03718e-05
2.87715e-05
2.71913e-05
2.55668e-05
2.39298e-05
2.22079e-05
2.04242e-05
1.85496e-05
1.66086e-05
1.45915e-05
1.26583e-05
1.09507e-05
9.94365e-06
1.16463e-05
1.18298e-05
0.000111943
0.000112089
0.000112143
0.000112165
0.000112199
0.000112184
0.000112206
0.000112168
0.000112175
0.000112119
0.00011211
0.000112037
0.00011201
0.000111921
0.000111872
0.000111765
0.000111691
0.000111565
0.000111464
0.000111316
0.000111185
0.000111012
0.00011085
0.00011065
0.000110456
0.000110233
0.000110016
0.000109773
0.000109533
0.000109269
0.000109003
0.000108717
0.000108424
0.00010811
0.000107793
0.000107451
0.000107098
0.000106722
0.000106331
0.000105916
0.000105482
0.000105022
0.000104538
0.000104025
0.000103482
0.000102911
0.000102315
0.000101689
0.000101036
0.00010035
9.96237e-05
9.88519e-05
9.80288e-05
9.7148e-05
9.58631e-05
9.4448e-05
9.29854e-05
9.14837e-05
8.99422e-05
8.83645e-05
8.67536e-05
8.51163e-05
8.34566e-05
8.17693e-05
8.0037e-05
7.82634e-05
7.64656e-05
7.4628e-05
7.2754e-05
7.08413e-05
6.88988e-05
6.69155e-05
6.48992e-05
6.2839e-05
6.07381e-05
5.85895e-05
5.63929e-05
5.41422e-05
5.18383e-05
4.94774e-05
4.70629e-05
4.45958e-05
4.2085e-05
3.95396e-05
3.69753e-05
3.44102e-05
3.18652e-05
2.93667e-05
2.69367e-05
2.45911e-05
2.23006e-05
2.00692e-05
1.78931e-05
1.5719e-05
1.36616e-05
1.17294e-05
1.00037e-05
8.66217e-06
8.18338e-06
1.11133e-05
7.25307e-05
7.29018e-05
7.29759e-05
7.31958e-05
7.32737e-05
7.34518e-05
7.35437e-05
7.36952e-05
7.37993e-05
7.3933e-05
7.4045e-05
7.41663e-05
7.42816e-05
7.43938e-05
7.45086e-05
7.46132e-05
7.47246e-05
7.48224e-05
7.49281e-05
7.50192e-05
7.51178e-05
7.52024e-05
7.52935e-05
7.5372e-05
7.54565e-05
7.55307e-05
7.56095e-05
7.5679e-05
7.57513e-05
7.58148e-05
7.58791e-05
7.59347e-05
7.5989e-05
7.60344e-05
7.60766e-05
7.61123e-05
7.61444e-05
7.61691e-05
7.61894e-05
7.62019e-05
7.62089e-05
7.62078e-05
7.62005e-05
7.61852e-05
7.61636e-05
7.61324e-05
7.60899e-05
7.60341e-05
7.59635e-05
7.58747e-05
7.57659e-05
7.56344e-05
7.54787e-05
7.52969e-05
7.50904e-05
7.48708e-05
7.46246e-05
7.43589e-05
7.40608e-05
7.37306e-05
7.33537e-05
7.27765e-05
7.20285e-05
7.12278e-05
7.03854e-05
6.94958e-05
6.85613e-05
6.75733e-05
6.65351e-05
6.54358e-05
6.4279e-05
6.30377e-05
6.17354e-05
6.03599e-05
5.8883e-05
5.7319e-05
5.56543e-05
5.38865e-05
5.20129e-05
5.00297e-05
4.79393e-05
4.57411e-05
4.34409e-05
4.10425e-05
3.85553e-05
3.59836e-05
3.33274e-05
3.05888e-05
2.77654e-05
2.48639e-05
2.1872e-05
1.8848e-05
1.59559e-05
1.32179e-05
1.0885e-05
8.8525e-06
7.33114e-06
6.24347e-06
5.67806e-06
6.49075e-06
6.80038e-06
6.8148e-06
6.82265e-06
6.83516e-06
6.84585e-06
6.8604e-06
6.87178e-06
6.8873e-06
6.89952e-06
6.91552e-06
6.92871e-06
6.94498e-06
6.95919e-06
6.97572e-06
6.99094e-06
7.00779e-06
7.02401e-06
7.04129e-06
7.0585e-06
7.07637e-06
7.09459e-06
7.11326e-06
7.13256e-06
7.15221e-06
7.17269e-06
7.19348e-06
7.2152e-06
7.23724e-06
7.26027e-06
7.28368e-06
7.30811e-06
7.33301e-06
7.35896e-06
7.38551e-06
7.41317e-06
7.44157e-06
7.47111e-06
7.50153e-06
7.53314e-06
7.56577e-06
7.59966e-06
7.63469e-06
7.67105e-06
7.70863e-06
7.74754e-06
7.78762e-06
7.82896e-06
7.87149e-06
7.91529e-06
7.96031e-06
8.00671e-06
8.05453e-06
8.104e-06
8.15528e-06
8.20865e-06
8.26407e-06
8.32088e-06
8.37932e-06
8.43815e-06
8.49754e-06
8.55586e-06
8.61314e-06
8.67227e-06
8.7342e-06
8.79988e-06
8.8688e-06
8.94208e-06
9.01942e-06
9.10191e-06
9.18892e-06
9.28179e-06
9.37937e-06
9.4846e-06
9.59496e-06
9.71164e-06
9.83519e-06
9.96582e-06
1.01036e-05
1.02496e-05
1.04034e-05
1.05664e-05
1.0738e-05
1.0919e-05
1.11079e-05
1.13017e-05
1.14897e-05
1.16506e-05
1.1739e-05
1.16689e-05
1.12635e-05
1.0198e-05
8.74019e-06
6.79728e-06
4.69892e-06
3.17773e-06
2.25334e-06
2.24599e-06
3.60623e-06
3.86032e-06
4.2036e-06
1.0599e-05
2.16171e-06
2.83755e-06
3.93429e-06
5.20492e-06
6.25997e-06
7.08632e-06
7.98676e-06
8.5619e-06
9.10078e-06
9.49869e-06
9.91147e-06
1.02373e-05
1.06882e-05
1.19901e-05
1.40075e-05
1.49232e-05
1.29651e-05
9.50069e-06
3.68865e-06
5.73992e-06
2.342e-06
2.77958e-06
3.64293e-06
4.58225e-06
5.30252e-06
6.13342e-06
6.86093e-06
7.47278e-06
8.04553e-06
8.53213e-06
9.05374e-06
9.60393e-06
1.06821e-05
1.25847e-05
1.48e-05
1.47895e-05
1.20839e-05
9.07172e-06
3.6628e-06
5.05219e-06
2.9941e-06
3.28777e-06
3.82263e-06
4.35858e-06
4.95191e-06
5.61957e-06
6.18266e-06
6.73081e-06
7.28427e-06
7.85463e-06
8.53034e-06
9.57783e-06
1.13283e-05
1.37081e-05
1.53996e-05
1.42275e-05
1.16816e-05
8.70932e-06
3.58462e-06
5.35556e-06
3.75784e-06
3.93494e-06
4.06162e-06
4.44603e-06
4.85161e-06
5.3631e-06
5.76345e-06
6.45458e-06
7.43677e-06
8.1694e-06
9.28789e-06
1.10674e-05
1.36482e-05
1.60309e-05
1.54924e-05
1.33905e-05
1.13919e-05
8.1877e-06
3.01318e-06
5.94627e-06
4.60734e-06
4.68241e-06
4.49771e-06
4.90268e-06
5.02627e-06
5.53217e-06
6.22735e-06
7.34767e-06
9.00801e-06
1.0563e-05
1.22412e-05
1.47605e-05
1.71238e-05
1.65714e-05
1.48435e-05
1.31939e-05
1.12877e-05
7.42518e-06
2.29007e-06
6.81481e-06
5.73572e-06
5.72433e-06
5.36891e-06
5.84365e-06
6.20933e-06
7.13372e-06
8.59224e-06
1.1387e-05
1.42516e-05
1.60783e-05
1.7843e-05
1.85799e-05
1.74841e-05
1.60542e-05
1.46117e-05
1.31542e-05
1.10413e-05
6.34716e-06
1.59765e-06
8.3889e-06
7.68796e-06
7.6874e-06
7.66525e-06
8.66994e-06
1.02999e-05
1.28469e-05
1.6831e-05
2.2464e-05
2.10782e-05
2.05794e-05
1.97119e-05
1.84303e-05
1.73903e-05
1.60608e-05
1.48287e-05
1.32142e-05
1.06695e-05
5.02295e-06
9.85616e-07
1.25456e-05
1.3213e-05
1.39698e-05
1.59119e-05
1.89908e-05
2.30788e-05
2.65119e-05
2.54497e-05
2.426e-05
2.31271e-05
2.2158e-05
2.08741e-05
1.98186e-05
1.86077e-05
1.69785e-05
1.51882e-05
1.30725e-05
9.58864e-06
3.99741e-06
5.45497e-07
2.86526e-05
3.1565e-05
3.3068e-05
3.55611e-05
3.7702e-05
3.55833e-05
3.39391e-05
3.17621e-05
3.02613e-05
2.82188e-05
2.66826e-05
2.45675e-05
2.27834e-05
2.03105e-05
1.77024e-05
1.4148e-05
1.17045e-05
8.3075e-06
3.62104e-06
3.28195e-07
5.03259e-05
5.3236e-05
5.37914e-05
5.17455e-05
4.90249e-05
4.58014e-05
4.34228e-05
4.01272e-05
3.8008e-05
3.44993e-05
3.23233e-05
2.83999e-05
2.56912e-05
2.02956e-05
1.48805e-05
1.0992e-05
9.31654e-06
7.09638e-06
3.28455e-06
2.79511e-07
4.69506e-05
4.99056e-05
5.07204e-05
4.87154e-05
4.67243e-05
4.33816e-05
4.17039e-05
3.84433e-05
3.68615e-05
3.36196e-05
3.18466e-05
2.83837e-05
2.5928e-05
2.18462e-05
1.62025e-05
1.21445e-05
9.66362e-06
7.02807e-06
2.91058e-06
2.24585e-07
2.29322e-05
2.56944e-05
2.72705e-05
3.03948e-05
3.46624e-05
3.31978e-05
3.19903e-05
3.02901e-05
2.89256e-05
2.74628e-05
2.60314e-05
2.46613e-05
2.28502e-05
2.11489e-05
1.84072e-05
1.53903e-05
1.25217e-05
8.46988e-06
3.13067e-06
2.42201e-07
1.12625e-05
1.14178e-05
1.18091e-05
1.30904e-05
1.55823e-05
1.91326e-05
2.41389e-05
2.67007e-05
2.54085e-05
2.38717e-05
2.27226e-05
2.14233e-05
2.01324e-05
1.90858e-05
1.78239e-05
1.58919e-05
1.38102e-05
1.02374e-05
3.81172e-06
4.09689e-07
8.06085e-06
7.32469e-06
7.30994e-06
7.20453e-06
8.03574e-06
9.27275e-06
1.13743e-05
1.48412e-05
2.04021e-05
2.26541e-05
2.22222e-05
2.12554e-05
1.96093e-05
1.81447e-05
1.66796e-05
1.55249e-05
1.38709e-05
1.13262e-05
4.91443e-06
8.37138e-07
6.51692e-06
5.47631e-06
5.48619e-06
5.23514e-06
5.73578e-06
6.12394e-06
6.99919e-06
8.33563e-06
1.06637e-05
1.34741e-05
1.54871e-05
1.75104e-05
2.00037e-05
1.88711e-05
1.69905e-05
1.52305e-05
1.3783e-05
1.16187e-05
6.71546e-06
1.539e-06
5.5592e-06
4.29957e-06
4.39703e-06
4.31316e-06
4.74068e-06
5.00216e-06
5.54902e-06
6.34301e-06
7.48476e-06
8.89745e-06
1.04911e-05
1.21894e-05
1.48881e-05
1.75995e-05
1.78958e-05
1.58008e-05
1.37898e-05
1.1769e-05
7.80728e-06
2.32347e-06
5.00404e-06
3.3877e-06
3.56709e-06
3.79548e-06
4.16803e-06
4.62227e-06
5.11527e-06
5.73247e-06
6.52727e-06
7.64641e-06
8.33807e-06
9.45018e-06
1.13041e-05
1.39733e-05
1.6665e-05
1.65512e-05
1.4154e-05
1.18963e-05
8.55295e-06
3.13709e-06
4.96117e-06
2.69309e-06
2.90859e-06
3.43686e-06
4.02978e-06
4.62708e-06
5.25368e-06
5.84555e-06
6.45663e-06
7.21651e-06
7.95432e-06
8.62829e-06
9.80107e-06
1.1694e-05
1.42334e-05
1.60993e-05
1.50404e-05
1.22132e-05
8.97924e-06
3.75091e-06
5.99011e-06
2.18911e-06
2.49674e-06
3.20957e-06
4.08686e-06
4.91302e-06
5.63854e-06
6.37485e-06
7.02943e-06
7.6671e-06
8.3216e-06
8.90289e-06
9.63199e-06
1.09882e-05
1.3085e-05
1.54682e-05
1.54625e-05
1.26961e-05
9.43388e-06
3.86057e-06
1.0752e-05
2.07355e-06
2.64929e-06
3.58772e-06
4.62668e-06
5.68436e-06
6.52771e-06
7.26161e-06
7.95588e-06
8.50981e-06
9.07134e-06
9.53088e-06
9.95088e-06
1.07037e-05
1.22421e-05
1.44959e-05
1.55962e-05
1.36622e-05
9.89296e-06
3.89079e-06
1.23418e-06
0.00011656
0.00029419
0.000330907
0.00033481
0.000335356
0.000335357
0.000335342
0.000335343
0.000335345
0.000335345
0.000335343
0.000335342
0.000335357
0.000335356
0.00033481
0.000330907
0.00029419
0.00011656
1.23418e-06
1.36978e-06
6.81649e-05
0.000219578
0.000309501
0.000330908
0.000334527
0.000335273
0.000335315
0.000335296
0.000335287
0.000335287
0.000335296
0.000335315
0.000335273
0.000334527
0.000330908
0.000309501
0.000219578
6.8165e-05
1.36978e-06
1.51343e-06
5.28929e-05
0.000176451
0.000280574
0.000322145
0.000332504
0.000334604
0.0003351
0.000335168
0.000335172
0.000335172
0.000335168