/*--------------------------------*- C++ -*----------------------------------*\
| =========                 |                                                 |
| \\      /  F ield         | OpenFOAM: The Open Source CFD Toolbox           |
|  \\    /   O peration     | Version:  2.1.0                                 |
|   \\  /    A nd           | Web:      www.OpenFOAM.org                      |
|    \\/     M anipulation  |                                                 |
\*---------------------------------------------------------------------------*/
FoamFile
{
    version     2.0;
    format      ascii;
    class       volScalarField;
    location    "0.21";
    object      p;
}
// * * * * * * * * * * * * * * * * * * * * * * * * * * * * * * * * * * * * * //

dimensions      [1 -1 -2 0 0 0 0];

internalField   nonuniform List<scalar> 
6400
(
99998.4
99995.8
99993.9
99992.3
99990.8
99989.4
99988
99986.6
99985.1
99983.6
99982.1
99980.4
99978.8
99977
99975.2
99973.4
99971.4
99969.4
99967.4
99965.2
99963
99960.7
99958.4
99956
99953.5
99950.9
99948.2
99945.5
99942.7
99939.8
99936.8
99933.7
99930.5
99927.2
99923.9
99920.4
99916.8
99913.1
99909.4
99905.4
99901.4
99897.3
99893
99888.6
99884
99879.3
99874.4
99869.4
99864.2
99858.8
99853.3
99847.5
99841.6
99835.5
99829.1
99822.6
99815.8
99808.8
99801.6
99794.1
99786.4
99778.4
99770.1
99761.5
99752.6
99743.4
99733.9
99724
99713.8
99703.2
99692.2
99680.8
99669
99656.9
99644.3
99631.3
99617.9
99604
99589.7
99574.9
99559.6
99543.6
99527
99509.6
99491.1
99471.3
99449.9
99426.5
99400.6
99371.8
99340
99306.1
99272.2
99239.9
99209.7
99174.5
99119.9
99008.7
98648
97081.9
99996.8
99995.1
99993.4
99991.9
99990.5
99989.1
99987.7
99986.2
99984.8
99983.3
99981.7
99980.1
99978.4
99976.7
99974.8
99973
99971
99969
99967
99964.8
99962.6
99960.3
99958
99955.5
99953
99950.4
99947.8
99945
99942.2
99939.3
99936.3
99933.2
99930
99926.8
99923.4
99919.9
99916.3
99912.7
99908.9
99905
99900.9
99896.8
99892.5
99888.1
99883.5
99878.8
99874
99868.9
99863.7
99858.3
99852.8
99847.1
99841.2
99835.1
99828.7
99822.2
99815.5
99808.5
99801.3
99793.9
99786.1
99778.2
99769.9
99761.4
99752.5
99743.3
99733.8
99724
99713.8
99703.2
99692.3
99681
99669.3
99657.2
99644.6
99631.7
99618.3
99604.5
99590.2
99575.4
99560.1
99544.1
99527.5
99510.1
99491.6
99471.8
99450.4
99427.1
99401.3
99372.6
99341.1
99307.4
99273.4
99241.2
99212.6
99182.2
99133.8
99037.6
98746.1
98208.5
99995.3
99994.4
99993
99991.6
99990.2
99988.8
99987.5
99986.1
99984.6
99983.1
99981.5
99979.9
99978.2
99976.5
99974.7
99972.8
99970.9
99968.9
99966.8
99964.7
99962.5
99960.2
99957.8
99955.4
99952.9
99950.3
99947.6
99944.9
99942.1
99939.2
99936.2
99933.1
99929.9
99926.7
99923.3
99919.8
99916.3
99912.6
99908.8
99904.9
99900.9
99896.8
99892.5
99888.1
99883.6
99878.9
99874
99869.1
99863.9
99858.6
99853.1
99847.4
99841.5
99835.4
99829.2
99822.7
99816
99809.1
99801.9
99794.5
99786.8
99778.9
99770.7
99762.2
99753.4
99744.3
99734.9
99725.1
99715
99704.6
99693.7
99682.5
99670.9
99658.9
99646.5
99633.7
99620.4
99606.7
99592.5
99577.8
99562.6
99546.7
99530.1
99512.7
99494.1
99474.3
99453
99429.7
99404.1
99375.9
99345.3
99313.3
99281.6
99252.3
99227
99201
99168
99109.7
98959.9
99053.3
99993.5
99993.5
99992.6
99991.4
99990.1
99988.8
99987.5
99986.1
99984.7
99983.2
99981.6
99980
99978.4
99976.6
99974.8
99973
99971.1
99969.1
99967
99964.9
99962.7
99960.4
99958.1
99955.7
99953.2
99950.6
99948
99945.2
99942.4
99939.6
99936.6
99933.5
99930.4
99927.1
99923.8
99920.3
99916.8
99913.1
99909.4
99905.5
99901.5
99897.4
99893.2
99888.8
99884.3
99879.6
99874.9
99869.9
99864.8
99859.5
99854.1
99848.4
99842.6
99836.6
99830.4
99823.9
99817.3
99810.4
99803.3
99795.9
99788.3
99780.5
99772.3
99763.9
99755.2
99746.1
99736.7
99727
99717
99706.6
99695.8
99684.6
99673
99661
99648.6
99635.8
99622.4
99608.6
99594.3
99579.5
99564
99547.9
99531.1
99513.3
99494.5
99474.5
99452.9
99429.6
99404.2
99376.8
99347.8
99318.3
99290.8
99266.8
99249.3
99237.1
99233.6
99240.6
99270.4
99687.6
99991.5
99992.6
99992.2
99991.3
99990.3
99989.1
99987.8
99986.5
99985
99983.6
99982
99980.4
99978.8
99977.1
99975.3
99973.5
99971.6
99969.6
99967.5
99965.4
99963.3
99961
99958.7
99956.3
99953.9
99951.3
99948.7
99946
99943.2
99940.3
99937.4
99934.3
99931.2
99928
99924.6
99921.2
99917.7
99914.1
99910.3
99906.5
99902.5
99898.4
99894.2
99889.9
99885.4
99880.7
99876
99871
99865.9
99860.7
99855.2
99849.6
99843.8
99837.8
99831.6
99825.2
99818.5
99811.7
99804.6
99797.2
99789.6
99781.8
99773.6
99765.2
99756.4
99747.4
99738
99728.3
99718.2
99707.7
99696.9
99685.7
99674
99662
99649.5
99636.5
99623.1
99609.1
99594.7
99579.6
99563.9
99547.6
99530.4
99512.4
99493.3
99472.9
99451.2
99427.9
99403
99376.6
99349.5
99323.3
99301.4
99284.7
99277.4
99288.3
99326.7
99419.5
99617.8
100187
99989.6
99991.7
99991.9
99991.4
99990.5
99989.5
99988.3
99987
99985.6
99984.1
99982.6
99981.1
99979.4
99977.7
99975.9
99974.1
99972.2
99970.3
99968.2
99966.1
99964
99961.8
99959.4
99957.1
99954.6
99952.1
99949.5
99946.8
99944
99941.1
99938.2
99935.2
99932
99928.8
99925.5
99922.1
99918.6
99914.9
99911.2
99907.3
99903.4
99899.3
99895
99890.7
99886.2
99881.5
99876.7
99871.8
99866.7
99861.4
99855.9
99850.3
99844.4
99838.4
99832.2
99825.7
99819.1
99812.2
99805.1
99797.7
99790.1
99782.2
99774.1
99765.6
99756.9
99747.8
99738.4
99728.7
99718.6
99708.1
99697.3
99686.1
99674.4
99662.3
99649.7
99636.6
99623.1
99609
99594.4
99579.1
99563.2
99546.5
99529
99510.6
99491.1
99470.4
99448.5
99425.2
99400.7
99375.5
99350.6
99328.1
99312
99304
99310.2
99348.4
99435.5
99619
99950.9
100578
99987.8
99990.9
99991.6
99991.4
99990.8
99989.8
99988.7
99987.5
99986.1
99984.7
99983.2
99981.6
99980
99978.3
99976.5
99974.7
99972.8
99970.8
99968.8
99966.7
99964.5
99962.3
99960
99957.6
99955.1
99952.6
99949.9
99947.2
99944.5
99941.6
99938.6
99935.6
99932.5
99929.2
99925.9
99922.5
99918.9
99915.3
99911.5
99907.7
99903.7
99899.5
99895.3
99890.9
99886.4
99881.7
99876.9
99872
99866.8
99861.5
99856.1
99850.4
99844.6
99838.5
99832.3
99825.9
99819.2
99812.3
99805.2
99797.9
99790.3
99782.4
99774.2
99765.8
99757
99748
99738.6
99728.9
99718.8
99708.3
99697.5
99686.2
99674.5
99662.3
99649.7
99636.5
99622.9
99608.6
99593.8
99578.2
99562
99545
99527.2
99508.3
99488.4
99467.4
99445.2
99422
99397.9
99373.8
99350.9
99331.9
99321.2
99322.2
99344.3
99408.9
99544.3
99810
100237
100874
99986.5
99990.1
99991.2
99991.3
99990.8
99990
99988.9
99987.7
99986.4
99984.9
99983.4
99981.9
99980.2
99978.5
99976.7
99974.9
99973
99971
99969
99966.9
99964.7
99962.5
99960.1
99957.8
99955.3
99952.7
99950.1
99947.4
99944.6
99941.7
99938.7
99935.7
99932.5
99929.3
99925.9
99922.5
99918.9
99915.2
99911.5
99907.6
99903.6
99899.4
99895.2
99890.8
99886.2
99881.6
99876.8
99871.8
99866.7
99861.4
99855.9
99850.2
99844.4
99838.4
99832.2
99825.7
99819.1
99812.2
99805.2
99797.8
99790.2
99782.4
99774.3
99765.9
99757.1
99748.1
99738.7
99729
99719
99708.5
99697.7
99686.4
99674.7
99662.5
99649.8
99636.6
99622.8
99608.4
99593.3
99577.6
99561
99543.7
99525.4
99506.1
99485.8
99464.3
99441.9
99418.6
99394.8
99371.6
99350.4
99334.3
99327.9
99337.1
99373.4
99461
99637.9
99968.9
100456
101083
99985.8
99989.6
99990.9
99991.1
99990.8
99990
99988.9
99987.7
99986.4
99985
99983.5
99981.9
99980.2
99978.5
99976.7
99974.9
99972.9
99971
99968.9
99966.8
99964.6
99962.3
99960
99957.6
99955.1
99952.5
99949.9
99947.1
99944.3
99941.4
99938.4
99935.3
99932.2
99928.9
99925.5
99922.1
99918.5
99914.8
99911
99907.1
99903.1
99899
99894.7
99890.3
99885.8
99881.2
99876.3
99871.4
99866.3
99861
99855.5
99849.9
99844.1
99838.1
99831.9
99825.5
99818.9
99812.1
99805
99797.7
99790.2
99782.4
99774.3
99766
99757.3
99748.3
99739
99729.3
99719.3
99708.9
99698.1
99686.8
99675.1
99662.9
99650.2
99636.9
99623
99608.4
99593.2
99577.2
99560.3
99542.6
99523.9
99504.1
99483.3
99461.5
99438.6
99415.2
99391.6
99368.9
99349.1
99335
99331.6
99346.5
99393.3
99497.6
99704.2
100079
100601
101215
99985.6
99989.3
99990.7
99991
99990.6
99989.9
99988.9
99987.6
99986.3
99984.8
99983.3
99981.7
99980
99978.2
99976.4
99974.6
99972.6
99970.6
99968.5
99966.4
99964.1
99961.9
99959.5
99957.1
99954.6
99952
99949.3
99946.6
99943.8
99940.9
99937.9
99934.8
99931.7
99928.4
99925.1
99921.6
99918
99914.4
99910.6
99906.8
99902.8
99898.6
99894.4
99890
99885.5
99880.9
99876.1
99871.2
99866.1
99860.8
99855.4
99849.8
99844
99838
99831.8
99825.5
99818.9
99812.1
99805.1
99797.8
99790.3
99782.6
99774.5
99766.1
99757.5
99748.6
99739.4
99729.8
99719.8
99709.4
99698.6
99687.3
99675.6
99663.4
99650.6
99637.3
99623.3
99608.6
99593.1
99576.9
99559.7
99541.6
99522.5
99502.3
99481
99458.7
99435.4
99411.7
99388.1
99365.7
99346.5
99333.5
99331.8
99349.5
99401.7
99514.9
99735.7
100132
100669
101276
99985.7
99989.4
99990.8
99991.1
99990.7
99989.9
99988.9
99987.7
99986.3
99984.9
99983.3
99981.7
99980
99978.3
99976.5
99974.6
99972.7
99970.6
99968.6
99966.4
99964.2
99961.9
99959.5
99957.1
99954.6
99952
99949.4
99946.6
99943.8
99940.9
99937.9
99934.9
99931.7
99928.4
99925.1
99921.6
99918.1
99914.4
99910.7
99906.8
99902.8
99898.7
99894.4
99890.1
99885.5
99880.9
99876.1
99871.2
99866.1
99860.8
99855.4
99849.8
99844
99838.1
99831.9
99825.6
99819
99812.3
99805.3
99798.1
99790.6
99782.8
99774.8
99766.5
99757.9
99749.1
99739.8
99730.3
99720.3
99710
99699.2
99688
99676.2
99664
99651.2
99637.7
99623.6
99608.8
99593.1
99576.6
99559.2
99540.7
99521.2
99500.6
99478.8
99455.9
99432.2
99408
99384.1
99361.6
99342.5
99329.7
99328
99345.8
99397.8
99510.5
99730
100124
100659
101266
99986.1
99989.8
99991
99991.2
99990.8
99990
99989
99987.7
99986.4
99984.9
99983.4
99981.8
99980.2
99978.4
99976.6
99974.8
99972.9
99970.9
99968.8
99966.7
99964.5
99962.2
99959.9
99957.4
99955
99952.4
99949.7
99947
99944.2
99941.3
99938.3
99935.3
99932.1
99928.8
99925.5
99922
99918.5
99914.8
99911
99907.1
99903.1
99899
99894.7
99890.3
99885.8
99881.2
99876.4
99871.4
99866.3
99861.1
99855.7
99850.1
99844.3
99838.3
99832.2
99825.9
99819.3
99812.6
99805.6
99798.4
99790.9
99783.2
99775.2
99767
99758.4
99749.6
99740.4
99730.8
99720.9
99710.6
99699.9
99688.6
99676.9
99664.7
99651.8
99638.3
99624.1
99609.1
99593.2
99576.5
99558.7
99539.9
99520
99498.9
99476.6
99453.2
99428.9
99404.2
99379.8
99356.7
99337
99323.5
99320.4
99335.5
99382.2
99485.1
99687.2
100056
100573
101186
99987
99990.4
99991.4
99991.4
99990.9
99990
99988.9
99987.6
99986.3
99984.8
99983.3
99981.7
99980.1
99978.4
99976.6
99974.7
99972.8
99970.8
99968.8
99966.7
99964.5
99962.2
99959.9
99957.5
99955
99952.5
99949.8
99947.1
99944.3
99941.4
99938.5
99935.4
99932.3
99929
99925.7
99922.2
99918.7
99915
99911.3
99907.4
99903.4
99899.3
99895
99890.7
99886.2
99881.5
99876.7
99871.8
99866.7
99861.4
99856
99850.4
99844.7
99838.7
99832.6
99826.3
99819.7
99813
99806
99798.8
99791.4
99783.7
99775.7
99767.5
99759
99750.2
99741
99731.5
99721.6
99711.3
99700.6
99689.4
99677.7
99665.4
99652.5
99638.9
99624.6
99609.5
99593.5
99576.5
99558.5
99539.4
99519
99497.5
99474.7
99450.7
99425.8
99400.5
99375.3
99351.6
99330.7
99315.4
99309.7
99319.6
99356.4
99441.2
99611.4
99932.7
100413
101039
99988.5
99991.2
99991.8
99991.5
99990.8
99989.8
99988.7
99987.4
99986
99984.5
99983
99981.4
99979.8
99978.1
99976.3
99974.4
99972.5
99970.6
99968.5
99966.4
99964.2
99962
99959.7
99957.3
99954.8
99952.3
99949.6
99946.9
99944.1
99941.2
99938.3
99935.2
99932.1
99928.8
99925.5
99922.1
99918.5
99914.9
99911.2
99907.3
99903.3
99899.2
99895
99890.6
99886.2
99881.5
99876.8
99871.8
99866.8
99861.5
99856.1
99850.6
99844.8
99838.9
99832.8
99826.5
99820
99813.3
99806.4
99799.2
99791.8
99784.1
99776.2
99768
99759.6
99750.8
99741.7
99732.2
99722.4
99712.1
99701.4
99690.3
99678.6
99666.3
99653.4
99639.8
99625.4
99610.2
99594
99576.9
99558.6
99539.2
99518.5
99496.5
99473.2
99448.7
99423.1
99396.9
99370.9
99346.1
99323.9
99306.2
99296.8
99299.7
99323.4
99384
99511
99764.8
100181
100816
99990.3
99992.1
99992.2
99991.6
99990.6
99989.5
99988.2
99986.9
99985.5
99984
99982.5
99980.9
99979.2
99977.5
99975.7
99973.9
99972
99970
99967.9
99965.8
99963.6
99961.4
99959.1
99956.7
99954.2
99951.7
99949.1
99946.3
99943.6
99940.7
99937.7
99934.7
99931.6
99928.3
99925
99921.6
99918.1
99914.4
99910.7
99906.9
99902.9
99898.8
99894.6
99890.3
99885.8
99881.2
99876.4
99871.5
99866.5
99861.3
99855.9
99850.4
99844.7
99838.8
99832.7
99826.4
99820
99813.3
99806.4
99799.3
99791.9
99784.3
99776.5
99768.3
99759.9
99751.2
99742.2
99732.7
99723
99712.8
99702.1
99691
99679.4
99667.1
99654.2
99640.6
99626.1
99610.8
99594.6
99577.3
99558.8
99539.1
99518.1
99495.8
99472
99446.9
99420.7
99393.7
99366.5
99340.4
99316.5
99296.8
99282.9
99278.1
99287.1
99320.6
99398.7
99569
99886.9
100509
99992.2
99993.1
99992.6
99991.6
99990.4
99989.2
99987.8
99986.5
99985
99983.5
99982
99980.3
99978.7
99976.9
99975.1
99973.3
99971.3
99969.3
99967.3
99965.2
99963
99960.7
99958.4
99956
99953.5
99951
99948.3
99945.6
99942.8
99939.9
99937
99933.9
99930.7
99927.5
99924.2
99920.7
99917.2
99913.6
99909.8
99906
99902
99897.9
99893.7
99889.4
99884.9
99880.3
99875.6
99870.7
99865.7
99860.5
99855.1
99849.6
99844
99838.1
99832.1
99825.8
99819.4
99812.8
99805.9
99798.9
99791.6
99784
99776.2
99768.2
99759.8
99751.1
99742.1
99732.8
99723.1
99713
99702.4
99691.3
99679.7
99667.5
99654.6
99641
99626.5
99611.2
99594.8
99577.4
99558.8
99538.9
99517.7
99495
99470.9
99445.3
99418.4
99390.6
99362.3
99334.7
99309.1
99286.8
99269.3
99257.6
99252.4
99259.7
99289.4
99368.6
99550
100108
99994.2
99994
99993
99991.7
99990.4
99989
99987.6
99986.2
99984.7
99983.2
99981.6
99980
99978.3
99976.5
99974.7
99972.9
99970.9
99968.9
99966.8
99964.7
99962.5
99960.2
99957.9
99955.5
99953
99950.4
99947.7
99945
99942.2
99939.3
99936.3
99933.2
99930
99926.8
99923.4
99920
99916.4
99912.7
99909
99905.1
99901.1
99897
99892.8
99888.4
99883.9
99879.3
99874.5
99869.6
99864.6
99859.4
99854
99848.5
99842.8
99837
99830.9
99824.7
99818.2
99811.6
99804.8
99797.7
99790.4
99782.9
99775.1
99767.1
99758.7
99750.1
99741.2
99731.9
99722.2
99712.2
99701.6
99690.6
99679.1
99666.9
99654.1
99640.5
99626.1
99610.7
99594.4
99576.9
99558.2
99538.2
99516.8
99494
99469.5
99443.6
99416.2
99387.6
99358.3
99329.3
99302
99277.5
99257.6
99240.9
99223.7
99209.3
99197.9
99191.9
99202.8
99599.8
99996
99994.9
99993.4
99991.9
99990.5
99989.1
99987.6
99986.2
99984.7
99983.1
99981.6
99979.9
99978.2
99976.5
99974.6
99972.8
99970.8
99968.8
99966.7
99964.6
99962.4
99960.1
99957.7
99955.3
99952.7
99950.1
99947.5
99944.7
99941.9
99939
99936
99932.9
99929.7
99926.4
99923
99919.6
99916
99912.3
99908.5
99904.6
99900.6
99896.5
99892.2
99887.9
99883.3
99878.7
99873.9
99869
99863.9
99858.7
99853.3
99847.7
99842
99836
99829.9
99823.7
99817.2
99810.5
99803.6
99796.5
99789.2
99781.7
99773.8
99765.8
99757.4
99748.7
99739.7
99730.4
99720.7
99710.6
99700.1
99689
99677.5
99665.3
99652.4
99638.8
99624.3
99609
99592.6
99575.1
99556.3
99536.2
99514.7
99491.7
99467.2
99441
99413.2
99384.1
99354.1
99324.1
99295.5
99269.5
99247.5
99229.1
99204.1
99175.1
99134.7
99064.1
98894.6
98954.9
99997.4
99995.6
99993.9
99992.3
99990.8
99989.3
99987.9
99986.4
99984.9
99983.3
99981.8
99980.1
99978.4
99976.7
99974.8
99972.9
99971
99969
99966.9
99964.8
99962.5
99960.3
99957.9
99955.5
99952.9
99950.3
99947.7
99944.9
99942.1
99939.2
99936.2
99933.1
99929.9
99926.6
99923.2
99919.7
99916.2
99912.5
99908.7
99904.8
99900.8
99896.6
99892.4
99888
99883.4
99878.8
99874
99869
99863.9
99858.7
99853.3
99847.7
99841.9
99835.9
99829.8
99823.5
99817
99810.3
99803.4
99796.3
99788.9
99781.3
99773.4
99765.3
99756.9
99748.2
99739.2
99729.8
99720.1
99709.9
99699.3
99688.2
99676.5
99664.2
99651.3
99637.6
99623
99607.5
99590.9
99573.2
99554.3
99534
99512.2
99488.9
99464
99437.4
99409.1
99379.3
99348.5
99317.2
99287
99259.1
99233.5
99211.5
99191.6
99157.9
99101.9
98993.4
98682
98089.6
99998.8
99996.3
99994.3
99992.7
99991.1
99989.7
99988.2
99986.8
99985.3
99983.7
99982.1
99980.5
99978.8
99977
99975.2
99973.4
99971.4
99969.4
99967.3
99965.2
99963
99960.7
99958.3
99955.9
99953.4
99950.8
99948.1
99945.4
99942.5
99939.6
99936.6
99933.5
99930.4
99927.1
99923.7
99920.2
99916.7
99913
99909.2
99905.3
99901.3
99897.2
99892.9
99888.5
99884
99879.3
99874.5
99869.6
99864.5
99859.3
99853.9
99848.3
99842.5
99836.6
99830.4
99824.1
99817.6
99810.9
99804
99796.9
99789.5
99781.9
99774
99765.9
99757.5
99748.8
99739.8
99730.4
99720.7
99710.5
99699.9
99688.8
99677.1
99664.8
99651.9
99638.1
99623.5
99608
99591.4
99573.7
99554.7
99534.4
99512.6
99489.2
99464.2
99437.5
99409.1
99379.2
99348.1
99316.9
99286.8
99259
99233.8
99208.3
99178.4
99137.4
99079.1
98960.8
98583.2
96929.8
100594
101840
102371
102674
102881
103036
103158
103256
103336
103402
103457
103502
103539
103568
103591
103608
103620
103626
103627
103623
100546
101551
102172
102562
102823
103010
103152
103262
103351
103422
103479
103526
103563
103592
103614
103630
103639
103643
103642
103633
100827
101581
102115
102504
102784
102989
103145
103265
103360
103435
103495
103543
103581
103609
103630
103644
103652
103655
103653
103639
101096
101710
102163
102516
102787
102995
103155
103280
103378
103456
103517
103565
103601
103628
103647
103659
103665
103666
103662
103642
101326
101848
102244
102563
102817
103019
103177
103303
103402
103480
103541
103588
103623
103648
103665
103674
103678
103676
103670
103645
101520
101975
102331
102624
102862
103054
103209
103332
103430
103507
103567
103612
103645
103667
103681
103688
103689
103686
103676
103647
101676
102085
102412
102684
102909
103093
103243
103363
103459
103535
103593
103636
103667
103686
103697
103701
103700
103694
103681
103649
101794
102170
102478
102736
102952
103129
103275
103393
103487
103561
103618
103659
103687
103704
103711
103712
103709
103701
103684
103651
101872
102228
102524
102774
102984
103158
103302
103418
103511
103584
103639
103679
103704
103719
103724
103722
103716
103706
103686
103656
101910
102257
102548
102795
103003
103176
103318
103433
103526
103598
103652
103691
103716
103729
103732
103729
103722
103710
103687
103662
101900
102248
102540
102787
102996
103169
103312
103428
103521
103594
103649
103688
103713
103727
103730
103727
103720
103709
103687
103662
101847
102205
102503
102755
102966
103142
103287
103405
103500
103574
103631
103672
103699
103714
103720
103719
103713
103704
103686
103660
101758
102137
102447
102709
102927
103108
103256
103376
103473
103549
103608
103651
103680
103698
103707
103709
103705
103698
103682
103659
101630
102043
102373
102650
102879
103067
103220
103344
103443
103521
103581
103627
103659
103680
103692
103697
103696
103691
103679
103657
101465
101926
102286
102584
102827
103025
103184
103311
103412
103492
103555
103602
103637
103661
103676
103684
103686
103683
103674
103648
101264
101791
102193
102519
102780
102986
103150
103280
103383
103465
103528
103577
103614
103641
103659
103670
103674
103673
103668
103645
101027
101648
102108
102469
102747
102961
103126
103256
103358
103440
103504
103554
103593
103621
103642
103655
103662
103663
103660
103642
100750
101514
102057
102455
102743
102955
103116
103241
103340
103419
103482
103532
103572
103602
103624
103640
103649
103652
103650
103638
100460
101480
102114
102515
102784
102977
103124
103239
103331
103406
103466
103515
103554
103585
103609
103625
103636
103640
103639
103631
100504
101775
102318
102629
102843
103003
103130
103232
103316
103386
103443
103490
103529
103560
103585
103603
103616
103622
103624
103620
103462
103460
103459
103458
103457
103457
103456
103456
103456
103456
103456
103456
103456
103456
103457
103457
103458
103459
103460
103462
103459
103456
103456
103456
103455
103455
103455
103455
103455
103455
103455
103455
103455
103455
103455
103455
103456
103456
103456
103459
103458
103456
103455
103455
103455
103455
103455
103455
103455
103455
103455
103455
103455
103455
103455
103455
103455
103455
103456
103458
103458
103456
103456
103456
103456
103456
103456
103456
103456
103456
103456
103456
103456
103456
103456
103456
103456
103456
103456
103458
103457
103456
103456
103455
103455
103455
103455
103455
103455
103455
103455
103455
103455
103455
103455
103455
103455
103456
103456
103457
103457
103455
103455
103455
103455
103455
103455
103455
103455
103455
103455
103455
103455
103455
103455
103455
103455
103455
103455
103457
103456
103455
103454
103454
103454
103454
103454
103454
103454
103454
103454
103454
103454
103454
103454
103454
103454
103454
103455
103456
103456
103454
103454
103454
103454
103453
103453
103453
103453
103453
103453
103453
103453
103453
103453
103454
103454
103454
103454
103456
103455
103453
103453
103453
103453
103453
103453
103453
103453
103453
103453
103453
103453
103453
103453
103453
103453
103453
103453
103455
103454
103453
103452
103452
103452
103452
103452
103452
103452
103452
103452
103452
103452
103452
103452
103452
103452
103452
103453
103454
103453
103452
103452
103452
103452
103451
103451
103451
103451
103451
103451
103451
103451
103451
103451
103452
103452
103452
103452
103453
103453
103451
103451
103451
103451
103451
103451
103451
103451
103451
103451
103451
103451
103451
103451
103451
103451
103451
103451
103453
103452
103450
103450
103450
103450
103450
103450
103450
103450
103450
103450
103450
103450
103450
103450
103450
103450
103450
103450
103452
103451
103450
103450
103449
103449
103449
103449
103449
103449
103449
103449
103449
103449
103449
103449
103449
103449
103450
103450
103451
103450
103449
103449
103449
103449
103449
103448
103448
103448
103448
103448
103448
103448
103449
103449
103449
103449
103449
103449
103450
103450
103448
103448
103448
103448
103448
103448
103448
103448
103448
103448
103448
103448
103448
103448
103448
103448
103448
103448
103450
103449
103447
103447
103447
103447
103447
103447
103447
103447
103447
103447
103447
103447
103447
103447
103447
103447
103447
103447
103449
103448
103447
103446
103446
103446
103446
103446
103446
103446
103446
103446
103446
103446
103446
103446
103446
103446
103446
103447
103448
103447
103446
103446
103446
103446
103445
103445
103445
103445
103445
103445
103445
103445
103445
103445
103446
103446
103446
103446
103447
103446
103445
103445
103445
103445
103445
103445
103445
103445
103445
103445
103445
103445
103445
103445
103445
103445
103445
103445
103446
103446
103444
103444
103444
103444
103444
103444
103444
103444
103444
103444
103444
103444
103444
103444
103444
103444
103444
103444
103446
103445
103443
103443
103443
103443
103443
103443
103443
103443
103443
103443
103443
103443
103443
103443
103443
103443
103443
103443
103445
103444
103443
103443
103442
103442
103442
103442
103442
103442
103442
103442
103442
103442
103442
103442
103442
103442
103443
103443
103444
103443
103442
103442
103442
103442
103442
103441
103441
103441
103441
103441
103441
103441
103441
103442
103442
103442
103442
103442
103443
103442
103441
103441
103441
103441
103441
103441
103441
103441
103441
103441
103441
103441
103441
103441
103441
103441
103441
103441
103442
103441
103440
103440
103440
103440
103440
103440
103440
103440
103440
103440
103440
103440
103440
103440
103440
103440
103440
103440
103441
103441
103439
103439
103439
103439
103439
103439
103439
103439
103439
103439
103439
103439
103439
103439
103439
103439
103439
103439
103441
103440
103439
103438
103438
103438
103438
103438
103438
103438
103438
103438
103438
103438
103438
103438
103438
103438
103438
103439
103440
103439
103438
103438
103438
103438
103438
103437
103437
103437
103437
103437
103437
103437
103437
103438
103438
103438
103438
103438
103439
103438
103437
103437
103437
103437
103437
103437
103437
103437
103437
103437
103437
103437
103437
103437
103437
103437
103437
103437
103438
103437
103436
103436
103436
103436
103436
103436
103436
103436
103436
103436
103436
103436
103436
103436
103436
103436
103436
103436
103437
103436
103435
103435
103435
103435
103435
103435
103435
103435
103435
103435
103435
103435
103435
103435
103435
103435
103435
103435
103436
103435
103435
103434
103434
103434
103434
103434
103434
103434
103434
103434
103434
103434
103434
103434
103434
103434
103434
103435
103435
103435
103434
103434
103434
103434
103434
103433
103433
103433
103433
103433
103433
103433
103433
103434
103434
103434
103434
103434
103435
103434
103433
103433
103433
103433
103433
103433
103433
103433
103433
103433
103433
103433
103433
103433
103433
103433
103433
103433
103434
103433
103432
103432
103432
103432
103432
103432
103432
103432
103432
103432
103432
103432
103432
103432
103432
103432
103432
103432
103433
103432
103431
103431
103431
103431
103431
103431
103431
103431
103431
103431
103431
103431
103431
103431
103431
103431
103431
103431
103432
103431
103431
103431
103430
103430
103430
103430
103430
103430
103430
103430
103430
103430
103430
103430
103430
103430
103431
103431
103431
103430
103430
103430
103430
103430
103430
103430
103430
103430
103430
103430
103430
103430
103430
103430
103430
103430
103430
103430
103430
103430
103429
103429
103429
103429
103429
103429
103429
103429
103429
103429
103429
103429
103429
103429
103429
103429
103429
103429
103430
103429
103428
103428
103428
103428
103428
103428
103428
103428
103428
103428
103428
103428
103428
103428
103428
103428
103428
103428
103429
103428
103428
103427
103427
103427
103427
103427
103427
103427
103427
103427
103427
103427
103427
103427
103427
103427
103427
103428
103428
103427
103427
103427
103427
103427
103427
103427
103427
103427
103427
103427
103427
103427
103427
103427
103427
103427
103427
103427
103427
103426
103426
103426
103426
103426
103426
103426
103426
103426
103426
103426
103426
103426
103426
103426
103426
103426
103426
103426
103426
103426
103425
103425
103425
103425
103425
103425
103425
103425
103425
103425
103425
103425
103425
103425
103425
103425
103425
103425
103426
103425
103425
103424
103424
103424
103424
103424
103424
103424
103424
103424
103424
103424
103424
103424
103424
103424
103424
103425
103425
103424
103424
103424
103424
103424
103424
103424
103424
103424
103424
103424
103424
103424
103424
103424
103424
103424
103424
103424
103424
103423
103423
103423
103423
103423
103423
103423
103423
103423
103423
103423
103423
103423
103423
103423
103423
103423
103423
103423
103423
103423
103422
103422
103422
103422
103422
103422
103422
103422
103422
103422
103422
103422
103422
103422
103422
103422
103422
103422
103423
103422
103422
103422
103422
103421
103421
103421
103421
103421
103421
103421
103421
103421
103421
103421
103421
103422
103422
103422
103422
103421
103421
103421
103421
103421
103421
103421
103421
103421
103421
103421
103421
103421
103421
103421
103421
103421
103421
103421
103421
103420
103420
103420
103420
103420
103420
103420
103420
103420
103420
103420
103420
103420
103420
103420
103420
103420
103420
103420
103420
103420
103420
103419
103419
103419
103419
103419
103419
103419
103419
103419
103419
103419
103419
103419
103419
103419
103419
103420
103420
103419
103419
103419
103419
103419
103419
103419
103419
103419
103419
103419
103419
103419
103419
103419
103419
103419
103419
103419
103419
103418
103418
103418
103418
103418
103418
103418
103418
103418
103418
103418
103418
103418
103418
103418
103418
103418
103418
103418
103418
103418
103417
103417
103417
103417
103417
103417
103417
103417
103417
103417
103417
103417
103417
103417
103417
103417
103417
103417
103418
103417
103417
103417
103417
103417
103417
103417
103417
103417
103417
103417
103417
103417
103417
103417
103417
103417
103417
103417
103417
103416
103416
103416
103416
103416
103416
103416
103416
103416
103416
103416
103416
103416
103416
103416
103416
103416
103416
103416
103416
103416
103415
103415
103415
103415
103415
103415
103415
103415
103415
103415
103415
103415
103415
103415
103415
103415
103415
103415
103416
103415
103415
103415
103415
103415
103415
103415
103415
103414
103414
103414
103414
103415
103415
103415
103415
103415
103415
103415
103415
103414
103414
103414
103414
103414
103414
103414
103414
103414
103414
103414
103414
103414
103414
103414
103414
103414
103414
103414
103414
103413
103413
103413
103413
103413
103413
103413
103413
103413
103413
103413
103413
103413
103413
103413
103413
103413
103413
103413
103413
103413
103413
103413
103413
103413
103413
103413
103413
103413
103413
103413
103413
103413
103413
103413
103413
103413
103413
103413
103413
103412
103412
103412
103412
103412
103412
103412
103412
103412
103412
103412
103412
103412
103412
103412
103412
103412
103412
103412
103412
103411
103411
103411
103411
103411
103411
103411
103411
103411
103411
103411
103411
103411
103411
103411
103411
103411
103411
103411
103411
103411
103411
103411
103411
103411
103411
103411
103411
103411
103411
103411
103411
103411
103411
103411
103411
103411
103411
103411
103411
103410
103410
103410
103410
103410
103410
103410
103410
103410
103410
103410
103410
103410
103410
103410
103410
103410
103410
103410
103410
103409
103409
103409
103409
103409
103409
103409
103409
103409
103409
103409
103409
103409
103409
103409
103409
103409
103409
103410
103410
103409
103409
103409
103409
103409
103409
103409
103409
103409
103409
103409
103409
103409
103409
103409
103409
103409
103409
103409
103409
103408
103408
103408
103408
103408
103408
103408
103408
103408
103408
103408
103408
103408
103408
103408
103408
103408
103408
103408
103408
103407
103407
103407
103407
103407
103407
103407
103407
103407
103407
103407
103408
103408
103408
103408
103408
103408
103408
103408
103408
103407
103407
103407
103407
103407
103407
103407
103407
103407
103407
103407
103407
103407
103407
103407
103407
103407
103407
103407
103407
103406
103406
103406
103406
103406
103406
103406
103406
103406
103406
103406
103406
103406
103406
103406
103407
103407
103407
103407
103407
103405
103405
103405
103405
103405
103405
103405
103406
103406
103406
103406
103406
103406
103406
103406
103406
103406
103406
103406
103406
103405
103405
103405
103405
103405
103405
103405
103405
103405
103405
103405
103405
103405
103405
103405
103405
103406
103406
103406
103406
103404
103404
103404
103404
103404
103404
103404
103404
103404
103404
103405
103405
103405
103405
103405
103405
103405
103405
103405
103405
103403
103403
103403
103403
103403
103403
103404
103404
103404
103404
103404
103404
103404
103404
103404
103405
103405
103405
103405
103405