/*--------------------------------*- C++ -*----------------------------------*\
| =========                 |                                                 |
| \\      /  F ield         | OpenFOAM: The Open Source CFD Toolbox           |
|  \\    /   O peration     | Version:  2.1.0                                 |
|   \\  /    A nd           | Web:      www.OpenFOAM.org                      |
|    \\/     M anipulation  |                                                 |
\*---------------------------------------------------------------------------*/
FoamFile
{
    version     2.0;
    format      ascii;
    class       surfaceScalarField;
    location    "0.21";
    object      phi;
}
// * * * * * * * * * * * * * * * * * * * * * * * * * * * * * * * * * * * * * //

dimensions      [0 3 -1 0 0 0 0];

internalField   nonuniform List<scalar> 
12460
(
-2.45178e-05
-3.15278e-09
-2.44808e-05
-3.70095e-08
-2.44219e-05
-5.88329e-08
-2.43521e-05
-6.98193e-08
-2.42759e-05
-7.6211e-08
-2.41955e-05
-8.04346e-08
-2.4112e-05
-8.34696e-08
-2.40261e-05
-8.58477e-08
-2.39383e-05
-8.78694e-08
-2.38486e-05
-8.97008e-08
-2.37571e-05
-9.14448e-08
-2.3664e-05
-9.3145e-08
-2.35691e-05
-9.48399e-08
-2.34726e-05
-9.65343e-08
-2.33744e-05
-9.82508e-08
-2.32744e-05
-9.99785e-08
-2.31727e-05
-1.01733e-07
-2.30692e-05
-1.03502e-07
-2.29638e-05
-1.05305e-07
-2.28567e-05
-1.07131e-07
-2.27478e-05
-1.0895e-07
-2.2637e-05
-1.10817e-07
-2.25242e-05
-1.12806e-07
-2.24093e-05
-1.14853e-07
-2.22923e-05
-1.16962e-07
-2.21732e-05
-1.19136e-07
-2.20518e-05
-1.21392e-07
-2.19281e-05
-1.23724e-07
-2.1802e-05
-1.26144e-07
-2.16733e-05
-1.28646e-07
-2.15421e-05
-1.31242e-07
-2.14082e-05
-1.33927e-07
-2.12715e-05
-1.36717e-07
-2.11319e-05
-1.39609e-07
-2.09893e-05
-1.42617e-07
-2.08435e-05
-1.45751e-07
-2.06945e-05
-1.49024e-07
-2.05421e-05
-1.52444e-07
-2.03861e-05
-1.56027e-07
-2.02263e-05
-1.59784e-07
-2.00626e-05
-1.6373e-07
-1.98948e-05
-1.67861e-07
-1.97227e-05
-1.72181e-07
-1.9546e-05
-1.76695e-07
-1.93647e-05
-1.81402e-07
-1.91784e-05
-1.86289e-07
-1.89872e-05
-1.91354e-07
-1.87906e-05
-1.9662e-07
-1.85888e-05
-2.01841e-07
-1.83817e-05
-2.07268e-07
-1.81686e-05
-2.13212e-07
-1.79494e-05
-2.19322e-07
-1.77242e-05
-2.25298e-07
-1.74934e-05
-2.30968e-07
-1.7257e-05
-2.36479e-07
-1.70152e-05
-2.41975e-07
-1.67679e-05
-2.47535e-07
-1.65149e-05
-2.53178e-07
-1.62563e-05
-2.58913e-07
-1.59918e-05
-2.64714e-07
-1.57215e-05
-2.7061e-07
-1.54452e-05
-2.76618e-07
-1.51628e-05
-2.82719e-07
-1.48743e-05
-2.88934e-07
-1.45794e-05
-2.95283e-07
-1.42781e-05
-3.01795e-07
-1.39701e-05
-3.08474e-07
-1.36554e-05
-3.15309e-07
-1.33337e-05
-3.22302e-07
-1.30049e-05
-3.29468e-07
-1.26688e-05
-3.36838e-07
-1.23251e-05
-3.44454e-07
-1.19736e-05
-3.52372e-07
-1.16139e-05
-3.60675e-07
-1.12454e-05
-3.69472e-07
-1.08676e-05
-3.78928e-07
-1.04795e-05
-3.89266e-07
-1.00801e-05
-4.00791e-07
-9.6676e-06
-4.13929e-07
-9.23994e-06
-4.29251e-07
-8.79426e-06
-4.47423e-07
-8.327e-06
-4.69165e-07
-7.83383e-06
-4.95273e-07
-7.30958e-06
-5.26542e-07
-6.74845e-06
-5.63642e-07
-6.14421e-06
-6.06995e-07
-5.49074e-06
-6.56452e-07
-4.78325e-06
-7.10707e-07
-4.02047e-06
-7.66211e-07
-3.20895e-06
-8.1511e-07
-2.37101e-06
-8.41577e-07
-1.56115e-06
-8.13359e-07
-8.82975e-07
-6.81202e-07
-4.5963e-07
-4.25403e-07
-3.34699e-07
-1.25669e-07
-5.75957e-07
2.41825e-07
-1.45848e-06
8.80048e-07
-3.70875e-06
2.23537e-06
-9.12574e-06
5.38892e-06
1.50124e-05
-2.41731e-05
-2.96277e-05
-2.01971e-08
-2.95786e-05
-8.61148e-08
-2.95157e-05
-1.21702e-07
-2.94446e-05
-1.40938e-07
-2.93682e-05
-1.52575e-07
-2.92883e-05
-1.60333e-07
-2.92059e-05
-1.65919e-07
-2.91214e-05
-1.70299e-07
-2.90353e-05
-1.7403e-07
-2.89476e-05
-1.77409e-07
-2.88584e-05
-1.80633e-07
-2.87677e-05
-1.8378e-07
-2.86757e-05
-1.86928e-07
-2.85821e-05
-1.90082e-07
-2.84871e-05
-1.93288e-07
-2.83905e-05
-1.96522e-07
-2.82925e-05
-1.9981e-07
-2.81928e-05
-2.03128e-07
-2.80917e-05
-2.06494e-07
-2.79889e-05
-2.09911e-07
-2.78846e-05
-2.13262e-07
-2.77788e-05
-2.16636e-07
-2.76714e-05
-2.2022e-07
-2.75624e-05
-2.23865e-07
-2.74517e-05
-2.27587e-07
-2.73395e-05
-2.31405e-07
-2.72256e-05
-2.35349e-07
-2.71099e-05
-2.3941e-07
-2.69925e-05
-2.43602e-07
-2.68732e-05
-2.47923e-07
-2.67521e-05
-2.52386e-07
-2.66291e-05
-2.56988e-07
-2.65041e-05
-2.61757e-07
-2.6377e-05
-2.66695e-07
-2.62479e-05
-2.71809e-07
-2.61166e-05
-2.77116e-07
-2.5983e-05
-2.82633e-07
-2.58472e-05
-2.88371e-07
-2.5709e-05
-2.94346e-07
-2.55683e-05
-3.00576e-07
-2.54251e-05
-3.07089e-07
-2.52792e-05
-3.13897e-07
-2.51305e-05
-3.21013e-07
-2.49789e-05
-3.28453e-07
-2.48243e-05
-3.36224e-07
-2.46665e-05
-3.44319e-07
-2.45053e-05
-3.52751e-07
-2.43407e-05
-3.61559e-07
-2.41724e-05
-3.70456e-07
-2.40007e-05
-3.79347e-07
-2.3826e-05
-3.88269e-07
-2.36487e-05
-3.97115e-07
-2.34686e-05
-4.05937e-07
-2.32855e-05
-4.14597e-07
-2.30995e-05
-4.23107e-07
-2.29107e-05
-4.31565e-07
-2.27189e-05
-4.40061e-07
-2.25244e-05
-4.48623e-07
-2.2327e-05
-4.57254e-07
-2.21269e-05
-4.65923e-07
-2.19241e-05
-4.7463e-07
-2.17188e-05
-4.83361e-07
-2.15109e-05
-4.92088e-07
-2.13007e-05
-5.0083e-07
-2.10882e-05
-5.09616e-07
-2.08736e-05
-5.18477e-07
-2.06569e-05
-5.27424e-07
-2.04383e-05
-5.36465e-07
-2.02178e-05
-5.45629e-07
-1.99954e-05
-5.54966e-07
-1.97711e-05
-5.64563e-07
-1.95448e-05
-5.7452e-07
-1.93163e-05
-5.84982e-07
-1.90855e-05
-5.96134e-07
-1.88518e-05
-6.0822e-07
-1.86148e-05
-6.21556e-07
-1.83737e-05
-6.36559e-07
-1.81276e-05
-6.53757e-07
-1.78753e-05
-6.73855e-07
-1.76151e-05
-6.97768e-07
-1.73452e-05
-7.26531e-07
-1.70633e-05
-7.61242e-07
-1.67666e-05
-8.03145e-07
-1.6452e-05
-8.53485e-07
-1.61159e-05
-9.13302e-07
-1.57546e-05
-9.83154e-07
-1.53647e-05
-1.06259e-06
-1.49438e-05
-1.14929e-06
-1.44918e-05
-1.23743e-06
-1.40127e-05
-1.31508e-06
-1.35171e-05
-1.35971e-06
-1.3023e-05
-1.33172e-06
-1.25582e-05
-1.17199e-06
-1.21991e-05
-8.12573e-07
-1.21486e-05
-2.06634e-07
-1.26124e-05
6.73227e-07
-1.38851e-05
2.11827e-06
-1.64778e-05
4.78981e-06
-2.14118e-05
1.02825e-05
2.5719e-05
-3.21635e-05
-3.2528e-05
-4.42721e-08
-3.24855e-05
-1.28646e-07
-3.2432e-05
-1.75143e-07
-3.23718e-05
-2.01139e-07
-3.23074e-05
-2.1702e-07
-3.22401e-05
-2.27587e-07
-3.2171e-05
-2.3511e-07
-3.21003e-05
-2.40984e-07
-3.20284e-05
-2.4592e-07
-3.19554e-05
-2.50385e-07
-3.18814e-05
-2.54607e-07
-3.18065e-05
-2.58742e-07
-3.17306e-05
-2.62866e-07
-3.16536e-05
-2.6702e-07
-3.15757e-05
-2.71249e-07
-3.14966e-05
-2.75553e-07
-3.14165e-05
-2.79947e-07
-3.13352e-05
-2.84434e-07
-3.12527e-05
-2.89024e-07
-3.11689e-05
-2.93741e-07
-3.10837e-05
-2.98465e-07
-3.09972e-05
-3.03127e-07
-3.09097e-05
-3.07801e-07
-3.08211e-05
-3.12452e-07
-3.07316e-05
-3.17145e-07
-3.06411e-05
-3.21935e-07
-3.05496e-05
-3.2686e-07
-3.04571e-05
-3.3191e-07
-3.03637e-05
-3.37091e-07
-3.02693e-05
-3.42404e-07
-3.01739e-05
-3.47858e-07
-3.00775e-05
-3.53443e-07
-2.99802e-05
-3.59189e-07
-2.98819e-05
-3.65105e-07
-2.97826e-05
-3.71185e-07
-2.96824e-05
-3.77446e-07
-2.95813e-05
-3.83904e-07
-2.94793e-05
-3.90565e-07
-2.93765e-05
-3.97443e-07
-2.92727e-05
-4.0454e-07
-2.91682e-05
-4.11885e-07
-2.9063e-05
-4.19486e-07
-2.8957e-05
-4.2735e-07
-2.88504e-05
-4.35489e-07
-2.87431e-05
-4.43904e-07
-2.86354e-05
-4.52582e-07
-2.85272e-05
-4.61513e-07
-2.84188e-05
-4.70636e-07
-2.83102e-05
-4.79869e-07
-2.82013e-05
-4.89106e-07
-2.80925e-05
-4.98077e-07
-2.79839e-05
-5.06758e-07
-2.78757e-05
-5.15406e-07
-2.77677e-05
-5.24018e-07
-2.76598e-05
-5.32476e-07
-2.75524e-05
-5.40761e-07
-2.74455e-05
-5.48917e-07
-2.73393e-05
-5.5697e-07
-2.72341e-05
-5.64877e-07
-2.71302e-05
-5.72588e-07
-2.70278e-05
-5.80069e-07
-2.69273e-05
-5.8726e-07
-2.6829e-05
-5.94096e-07
-2.67335e-05
-6.00554e-07
-2.66411e-05
-6.06653e-07
-2.65524e-05
-6.12389e-07
-2.64679e-05
-6.1774e-07
-2.63881e-05
-6.22701e-07
-2.63135e-05
-6.27291e-07
-2.62448e-05
-6.31559e-07
-2.61825e-05
-6.35616e-07
-2.61271e-05
-6.39585e-07
-2.60791e-05
-6.43676e-07
-2.60389e-05
-6.48164e-07
-2.60068e-05
-6.53415e-07
-2.59829e-05
-6.59894e-07
-2.59672e-05
-6.68207e-07
-2.59594e-05
-6.7911e-07
-2.59589e-05
-6.9357e-07
-2.59649e-05
-7.12843e-07
-2.59762e-05
-7.38332e-07
-2.5991e-05
-7.71461e-07
-2.60076e-05
-8.13821e-07
-2.60235e-05
-8.67051e-07
-2.6036e-05
-9.32472e-07
-2.60424e-05
-1.01066e-06
-2.60403e-05
-1.1008e-06
-2.60282e-05
-1.19963e-06
-2.60062e-05
-1.29972e-06
-2.59767e-05
-1.38657e-06
-2.59457e-05
-1.43437e-06
-2.5921e-05
-1.40108e-06
-2.59138e-05
-1.22429e-06
-2.59549e-05
-8.1591e-07
-2.61108e-05
-9.36374e-08
-2.6555e-05
1.07577e-06
-2.74907e-05
3.01196e-06
-2.93017e-05
6.55778e-06
-3.26997e-05
1.36363e-05
3.01422e-05
-3.71796e-05
-3.51784e-05
-6.79467e-08
-3.51477e-05
-1.59314e-07
-3.51107e-05
-2.12221e-07
-3.50688e-05
-2.42999e-07
-3.50238e-05
-2.61974e-07
-3.4977e-05
-2.74448e-07
-3.49289e-05
-2.83154e-07
-3.48801e-05
-2.89807e-07
-3.48308e-05
-2.9526e-07
-3.47811e-05
-3.00107e-07
-3.47311e-05
-3.0461e-07
-3.46808e-05
-3.08979e-07
-3.46304e-05
-3.13294e-07
-3.45798e-05
-3.17615e-07
-3.45291e-05
-3.2199e-07
-3.44782e-05
-3.26434e-07
-3.44273e-05
-3.30942e-07
-3.43762e-05
-3.35539e-07
-3.4325e-05
-3.4021e-07
-3.42739e-05
-3.44921e-07
-3.42227e-05
-3.49686e-07
-3.41714e-05
-3.54487e-07
-3.412e-05
-3.59218e-07
-3.40686e-05
-3.63868e-07
-3.40173e-05
-3.68491e-07
-3.39662e-05
-3.73176e-07
-3.39151e-05
-3.77971e-07
-3.38643e-05
-3.82851e-07
-3.38137e-05
-3.87816e-07
-3.37634e-05
-3.92861e-07
-3.37134e-05
-3.97988e-07
-3.36638e-05
-4.0318e-07
-3.36148e-05
-4.08449e-07
-3.35663e-05
-4.13802e-07
-3.35185e-05
-4.19241e-07
-3.34715e-05
-4.24771e-07
-3.34253e-05
-4.30392e-07
-3.33802e-05
-4.36108e-07
-3.33362e-05
-4.41926e-07
-3.32934e-05
-4.47832e-07
-3.3252e-05
-4.53836e-07
-3.32123e-05
-4.59926e-07
-3.31743e-05
-4.66093e-07
-3.31383e-05
-4.72328e-07
-3.31046e-05
-4.78614e-07
-3.30734e-05
-4.84919e-07
-3.3045e-05
-4.91211e-07
-3.30197e-05
-4.97375e-07
-3.29978e-05
-5.03401e-07
-3.29793e-05
-5.09524e-07
-3.29638e-05
-5.15616e-07
-3.29515e-05
-5.21443e-07
-3.29425e-05
-5.27057e-07
-3.29371e-05
-5.32421e-07
-3.29355e-05
-5.37458e-07
-3.29379e-05
-5.42075e-07
-3.29447e-05
-5.46291e-07
-3.29563e-05
-5.50145e-07
-3.29728e-05
-5.53546e-07
-3.29949e-05
-5.56408e-07
-3.30228e-05
-5.58697e-07
-3.30569e-05
-5.60349e-07
-3.30978e-05
-5.61274e-07
-3.31459e-05
-5.6143e-07
-3.32015e-05
-5.60858e-07
-3.32653e-05
-5.59589e-07
-3.33375e-05
-5.57612e-07
-3.34185e-05
-5.54942e-07
-3.35087e-05
-5.51647e-07
-3.36085e-05
-5.47836e-07
-3.37179e-05
-5.43695e-07
-3.38371e-05
-5.39478e-07
-3.39661e-05
-5.35513e-07
-3.41046e-05
-5.32222e-07
-3.42522e-05
-5.30168e-07
-3.44083e-05
-5.29989e-07
-3.45722e-05
-5.32512e-07
-3.47427e-05
-5.38714e-07
-3.49185e-05
-5.49746e-07
-3.50982e-05
-5.67086e-07
-3.52799e-05
-5.92364e-07
-3.54618e-05
-6.27123e-07
-3.5642e-05
-6.72978e-07
-3.58183e-05
-7.31588e-07
-3.59889e-05
-8.04119e-07
-3.61524e-05
-8.90778e-07
-3.63078e-05
-9.90218e-07
-3.64549e-05
-1.09836e-06
-3.65945e-05
-1.20669e-06
-3.67286e-05
-1.29964e-06
-3.68595e-05
-1.35101e-06
-3.69883e-05
-1.31978e-06
-3.71125e-05
-1.14716e-06
-3.72351e-05
-7.39454e-07
-3.73522e-05
-2.14841e-08
-3.76111e-05
1.29032e-06
-3.81033e-05
3.45934e-06
-3.90115e-05
7.41966e-06
-4.05239e-05
1.50993e-05
3.00913e-05
-4.05404e-05
-3.79017e-05
-8.4476e-08
-3.78883e-05
-1.72733e-07
-3.78744e-05
-2.26078e-07
-3.78592e-05
-2.58234e-07
-3.7843e-05
-2.78225e-07
-3.78263e-05
-2.91077e-07
-3.78097e-05
-2.99814e-07
-3.77933e-05
-3.06184e-07
-3.77774e-05
-3.11208e-07
-3.7762e-05
-3.15468e-07
-3.77473e-05
-3.19309e-07
-3.77334e-05
-3.22914e-07
-3.77203e-05
-3.26405e-07
-3.77082e-05
-3.29818e-07
-3.7697e-05
-3.33207e-07
-3.76868e-05
-3.36576e-07
-3.76779e-05
-3.39933e-07
-3.76702e-05
-3.43268e-07
-3.76639e-05
-3.46566e-07
-3.76591e-05
-3.49766e-07
-3.76559e-05
-3.52923e-07
-3.76543e-05
-3.56185e-07
-3.76541e-05
-3.59524e-07
-3.76553e-05
-3.62794e-07
-3.76579e-05
-3.65946e-07
-3.76622e-05
-3.6909e-07
-3.7668e-05
-3.72299e-07
-3.76755e-05
-3.7552e-07
-3.76848e-05
-3.7874e-07
-3.7696e-05
-3.81949e-07
-3.77091e-05
-3.85142e-07
-3.77243e-05
-3.8831e-07
-3.77417e-05
-3.91455e-07
-3.77614e-05
-3.94564e-07
-3.77835e-05
-3.97658e-07
-3.78081e-05
-4.00734e-07
-3.78354e-05
-4.03784e-07
-3.78655e-05
-4.06812e-07
-3.78985e-05
-4.09825e-07
-3.79345e-05
-4.12802e-07
-3.79738e-05
-4.15753e-07
-3.80163e-05
-4.18672e-07
-3.80624e-05
-4.21548e-07
-3.8112e-05
-4.24377e-07
-3.81654e-05
-4.27146e-07
-3.82227e-05
-4.29836e-07
-3.8284e-05
-4.32426e-07
-3.83493e-05
-4.34854e-07
-3.84187e-05
-4.37128e-07
-3.84924e-05
-4.39361e-07
-3.85705e-05
-4.41462e-07
-3.86531e-05
-4.43284e-07
-3.87404e-05
-4.44813e-07
-3.88324e-05
-4.45993e-07
-3.89292e-05
-4.46818e-07
-3.90311e-05
-4.47121e-07
-3.91381e-05
-4.46943e-07
-3.92503e-05
-4.46425e-07
-3.93677e-05
-4.45457e-07
-3.94905e-05
-4.43966e-07
-3.96186e-05
-4.41926e-07
-3.97521e-05
-4.39294e-07
-3.98911e-05
-4.35983e-07
-4.00354e-05
-4.31936e-07
-4.01853e-05
-4.27227e-07
-4.03405e-05
-4.21948e-07
-4.0501e-05
-4.16076e-07
-4.06668e-05
-4.09623e-07
-4.08378e-05
-4.02668e-07
-4.10138e-05
-3.95337e-07
-4.11949e-05
-3.87813e-07
-4.13808e-05
-3.80371e-07
-4.15714e-05
-3.73366e-07
-4.17664e-05
-3.67244e-07
-4.19655e-05
-3.62668e-07
-4.21684e-05
-3.60302e-07
-4.23746e-05
-3.61022e-07
-4.25837e-05
-3.65925e-07
-4.27948e-05
-3.763e-07
-4.30071e-05
-3.93767e-07
-4.32195e-05
-4.20177e-07
-4.34311e-05
-4.57029e-07
-4.36409e-05
-5.05775e-07
-4.38479e-05
-5.68084e-07
-4.40515e-05
-6.45016e-07
-4.42511e-05
-7.36539e-07
-4.44463e-05
-8.4103e-07
-4.46372e-05
-9.54106e-07
-4.48239e-05
-1.06709e-06
-4.50063e-05
-1.16478e-06
-4.51825e-05
-1.22254e-06
-4.53472e-05
-1.20297e-06
-4.54888e-05
-1.05316e-06
-4.55827e-05
-6.92731e-07
-4.56283e-05
-2.24789e-08
-4.56518e-05
1.26727e-06
-4.56856e-05
3.44531e-06
-4.57292e-05
7.41276e-06
-4.5468e-05
1.47818e-05
2.72055e-05
-4.26552e-05
-4.08493e-05
-8.81548e-08
-4.08583e-05
-1.63694e-07
-4.08737e-05
-2.10712e-07
-4.08922e-05
-2.39685e-07
-4.09128e-05
-2.57632e-07
-4.09351e-05
-2.68791e-07
-4.0959e-05
-2.75991e-07
-4.09843e-05
-2.80827e-07
-4.10112e-05
-2.84318e-07
-4.10397e-05
-2.86993e-07
-4.10698e-05
-2.89219e-07
-4.11016e-05
-2.9115e-07
-4.11351e-05
-2.92917e-07
-4.11704e-05
-2.94558e-07
-4.12076e-05
-2.96118e-07
-4.12466e-05
-2.97589e-07
-4.12876e-05
-2.98998e-07
-4.13306e-05
-3.00327e-07
-4.13757e-05
-3.01564e-07
-4.14229e-05
-3.02685e-07
-4.14722e-05
-3.03747e-07
-4.15237e-05
-3.048e-07
-4.15775e-05
-3.05864e-07
-4.16336e-05
-3.06853e-07
-4.16922e-05
-3.0759e-07
-4.17533e-05
-3.08248e-07
-4.18169e-05
-3.08966e-07
-4.18831e-05
-3.09641e-07
-4.1952e-05
-3.10278e-07
-4.20235e-05
-3.10867e-07
-4.20977e-05
-3.11413e-07
-4.21747e-05
-3.11913e-07
-4.22545e-05
-3.12383e-07
-4.2337e-05
-3.12808e-07
-4.24223e-05
-3.1321e-07
-4.25105e-05
-3.13605e-07
-4.26014e-05
-3.13999e-07
-4.26952e-05
-3.14394e-07
-4.27917e-05
-3.14809e-07
-4.2891e-05
-3.15237e-07
-4.2993e-05
-3.15691e-07
-4.30976e-05
-3.16176e-07
-4.3205e-05
-3.16689e-07
-4.33149e-05
-3.17233e-07
-4.34273e-05
-3.17804e-07
-4.35423e-05
-3.18387e-07
-4.36597e-05
-3.18961e-07
-4.37794e-05
-3.19495e-07
-4.39014e-05
-3.20002e-07
-4.40257e-05
-3.2051e-07
-4.41522e-05
-3.20962e-07
-4.42809e-05
-3.21258e-07
-4.44116e-05
-3.21374e-07
-4.45445e-05
-3.21243e-07
-4.46793e-05
-3.20865e-07
-4.48161e-05
-3.20087e-07
-4.49549e-05
-3.18775e-07
-4.5096e-05
-3.16953e-07
-4.52394e-05
-3.14634e-07
-4.53852e-05
-3.11822e-07
-4.55334e-05
-3.08497e-07
-4.5684e-05
-3.04611e-07
-4.58371e-05
-3.00068e-07
-4.59926e-05
-2.94736e-07
-4.61508e-05
-2.88692e-07
-4.63116e-05
-2.82121e-07
-4.6475e-05
-2.7494e-07
-4.66411e-05
-2.6713e-07
-4.68099e-05
-2.58768e-07
-4.69816e-05
-2.49987e-07
-4.71561e-05
-2.40978e-07
-4.73335e-05
-2.32027e-07
-4.75137e-05
-2.23533e-07
-4.76967e-05
-2.15919e-07
-4.78824e-05
-2.10009e-07
-4.80704e-05
-2.06462e-07
-4.82607e-05
-2.06195e-07
-4.84529e-05
-2.1034e-07
-4.86468e-05
-2.20182e-07
-4.88422e-05
-2.37257e-07
-4.90386e-05
-2.63659e-07
-4.92357e-05
-3.00861e-07
-4.94335e-05
-3.49956e-07
-4.96316e-05
-4.12784e-07
-4.98299e-05
-4.90396e-07
-5.00283e-05
-5.8257e-07
-5.02269e-05
-6.87692e-07
-5.04255e-05
-8.01526e-07
-5.06232e-05
-9.15902e-07
-5.08182e-05
-1.01696e-06
-5.10055e-05
-1.08291e-06
-5.11748e-05
-1.08159e-06
-5.13083e-05
-9.67892e-07
-5.13672e-05
-6.82202e-07
-5.1342e-05
-9.59222e-08
-5.11627e-05
1.03914e-06
-5.07934e-05
3.02534e-06
-5.00627e-05
6.62766e-06
-4.83649e-05
1.30223e-05
2.25951e-05
-4.38274e-05
-4.39684e-05
-7.74577e-08
-4.40011e-05
-1.30975e-07
-4.40455e-05
-1.66276e-07
-4.40968e-05
-1.8845e-07
-4.41525e-05
-2.01906e-07
-4.42115e-05
-2.09795e-07
-4.42732e-05
-2.1436e-07
-4.43371e-05
-2.16917e-07
-4.44031e-05
-2.18317e-07
-4.44712e-05
-2.19017e-07
-4.45411e-05
-2.19329e-07
-4.46129e-05
-2.1939e-07
-4.46865e-05
-2.19313e-07
-4.4762e-05
-2.19136e-07
-4.48393e-05
-2.18903e-07
-4.49184e-05
-2.18597e-07
-4.49992e-05
-2.18248e-07
-4.50818e-05
-2.17842e-07
-4.51661e-05
-2.17383e-07
-4.52521e-05
-2.16851e-07
-4.53397e-05
-2.16307e-07
-4.5429e-05
-2.15754e-07
-4.55199e-05
-2.15224e-07
-4.56123e-05
-2.14668e-07
-4.57063e-05
-2.13895e-07
-4.58021e-05
-2.12877e-07
-4.58997e-05
-2.1175e-07
-4.59993e-05
-2.10549e-07
-4.61008e-05
-2.0935e-07
-4.62041e-05
-2.08155e-07
-4.63093e-05
-2.0698e-07
-4.64162e-05
-2.05816e-07
-4.65249e-05
-2.04689e-07
-4.66352e-05
-2.03591e-07
-4.6747e-05
-2.02564e-07
-4.68604e-05
-2.01617e-07
-4.69752e-05
-2.00775e-07
-4.70913e-05
-2.00037e-07
-4.72086e-05
-1.99419e-07
-4.73272e-05
-1.98922e-07
-4.74468e-05
-1.98558e-07
-4.75674e-05
-1.98327e-07
-4.76889e-05
-1.98226e-07
-4.78114e-05
-1.9825e-07
-4.79346e-05
-1.98396e-07
-4.80585e-05
-1.98639e-07
-4.81832e-05
-1.98958e-07
-4.83085e-05
-1.9932e-07
-4.84344e-05
-1.99741e-07
-4.85609e-05
-2.0019e-07
-4.8688e-05
-2.00633e-07
-4.88157e-05
-2.0096e-07
-4.89439e-05
-2.01153e-07
-4.90728e-05
-2.01134e-07
-4.92024e-05
-2.00798e-07
-4.93326e-05
-2.00117e-07
-4.94634e-05
-1.99076e-07
-4.95947e-05
-1.97578e-07
-4.97266e-05
-1.9555e-07
-4.98591e-05
-1.92992e-07
-4.99924e-05
-1.89883e-07
-5.01265e-05
-1.86167e-07
-5.02615e-05
-1.81759e-07
-5.03975e-05
-1.76444e-07
-5.05347e-05
-1.70227e-07
-5.06732e-05
-1.63554e-07
-5.08129e-05
-1.56217e-07
-5.09539e-05
-1.48165e-07
-5.10965e-05
-1.39463e-07
-5.12406e-05
-1.30249e-07
-5.13865e-05
-1.20722e-07
-5.15341e-05
-1.11144e-07
-5.16835e-05
-1.01987e-07
-5.18351e-05
-9.34637e-08
-5.19886e-05
-8.67108e-08
-5.21443e-05
-8.22173e-08
-5.23022e-05
-8.08906e-08
-5.24624e-05
-8.38319e-08
-5.26252e-05
-9.23167e-08
-5.27908e-05
-1.0759e-07
-5.29595e-05
-1.32015e-07
-5.31312e-05
-1.67346e-07
-5.33065e-05
-2.13778e-07
-5.34859e-05
-2.73624e-07
-5.36694e-05
-3.48148e-07
-5.38572e-05
-4.36922e-07
-5.40493e-05
-5.38652e-07
-5.42452e-05
-6.49646e-07
-5.44433e-05
-7.62743e-07
-5.46399e-05
-8.66167e-07
-5.48275e-05
-9.41861e-07
-5.49924e-05
-9.64076e-07
-5.51115e-05
-8.96901e-07
-5.51427e-05
-6.99661e-07
-5.50375e-05
-2.50284e-07
-5.46949e-05
6.46543e-07
-5.39858e-05
2.26418e-06
-5.26048e-05
5.19016e-06
-4.98403e-05
1.01939e-05
1.70021e-05
-4.43151e-05
-4.69271e-05
-5.4896e-08
-4.69742e-05
-8.38724e-08
-4.7035e-05
-1.05468e-07
-4.71043e-05
-1.19152e-07
-4.71792e-05
-1.2707e-07
-4.72577e-05
-1.31228e-07
-4.7339e-05
-1.33077e-07
-4.74224e-05
-1.33557e-07
-4.75076e-05
-1.3323e-07
-4.75942e-05
-1.32442e-07
-4.76821e-05
-1.31399e-07
-4.77714e-05
-1.3021e-07
-4.78618e-05
-1.28948e-07
-4.79534e-05
-1.2764e-07
-4.80461e-05
-1.2632e-07
-4.81398e-05
-1.24969e-07
-4.82345e-05
-1.23621e-07
-4.83303e-05
-1.22246e-07
-4.84269e-05
-1.20874e-07
-4.85245e-05
-1.19473e-07
-4.86229e-05
-1.181e-07
-4.87222e-05
-1.16737e-07
-4.88223e-05
-1.15387e-07
-4.89234e-05
-1.13934e-07
-4.90251e-05
-1.12494e-07
-4.91274e-05
-1.11038e-07
-4.92301e-05
-1.09553e-07
-4.93331e-05
-1.08035e-07
-4.94365e-05
-1.06606e-07
-4.95401e-05
-1.05245e-07
-4.96439e-05
-1.03995e-07
-4.97478e-05
-1.02802e-07
-4.98517e-05
-1.01715e-07
-4.99557e-05
-1.0071e-07
-5.00597e-05
-9.98367e-08
-5.01636e-05
-9.90982e-08
-5.02674e-05
-9.85219e-08
-5.0371e-05
-9.81021e-08
-5.04745e-05
-9.78353e-08
-5.05778e-05
-9.77244e-08
-5.06809e-05
-9.77738e-08
-5.07838e-05
-9.798e-08
-5.08865e-05
-9.83318e-08
-5.0989e-05
-9.88169e-08
-5.10913e-05
-9.94253e-08
-5.11935e-05
-1.00128e-07
-5.12956e-05
-1.009e-07
-5.13976e-05
-1.01708e-07
-5.14995e-05
-1.02551e-07
-5.16015e-05
-1.03388e-07
-5.17035e-05
-1.04178e-07
-5.18056e-05
-1.04828e-07
-5.1908e-05
-1.05296e-07
-5.20106e-05
-1.05513e-07
-5.21135e-05
-1.05355e-07
-5.22169e-05
-1.04835e-07
-5.23206e-05
-1.04002e-07
-5.24246e-05
-1.02746e-07
-5.25291e-05
-1.00928e-07
-5.26342e-05
-9.85052e-08
-5.27398e-05
-9.54417e-08
-5.28463e-05
-9.16765e-08
-5.29536e-05
-8.71255e-08
-5.30619e-05
-8.15984e-08
-5.31717e-05
-7.46786e-08
-5.32829e-05
-6.75147e-08
-5.33955e-05
-5.95561e-08
-5.35098e-05
-5.07243e-08
-5.3626e-05
-4.10839e-08
-5.37443e-05
-3.07754e-08
-5.38648e-05
-2.00077e-08
-5.39876e-05
-9.08414e-09
-5.41129e-05
1.52573e-09
-5.42414e-05
1.2168e-08
-5.43727e-05
2.06205e-08
-5.45072e-05
2.71294e-08
-5.46451e-05
3.07901e-08
-5.47868e-05
3.05162e-08
-5.49327e-05
2.50798e-08
-5.50829e-05
1.29841e-08
-5.52384e-05
-7.28667e-09
-5.53986e-05
-3.89637e-08
-5.55648e-05
-8.06378e-08
-5.57372e-05
-1.35412e-07
-5.59156e-05
-2.05055e-07
-5.61005e-05
-2.88537e-07
-5.62917e-05
-3.85238e-07
-5.6488e-05
-4.92313e-07
-5.6687e-05
-6.03886e-07
-5.68839e-05
-7.10808e-07
-5.70693e-05
-7.99363e-07
-5.72269e-05
-8.50702e-07
-5.73294e-05
-8.40049e-07
-5.73383e-05
-7.3799e-07
-5.71703e-05
-4.67062e-07
-5.66954e-05
1.22042e-07
-5.57218e-05
1.23955e-06
-5.3844e-05
3.25754e-06
-5.03448e-05
6.63423e-06
1.09153e-05
-4.43151e-05
-4.93306e-05
-2.23443e-08
-4.93833e-05
-3.12259e-08
-4.94488e-05
-3.99707e-08
-4.95227e-05
-4.53327e-08
-4.96016e-05
-4.81e-08
-4.96837e-05
-4.91595e-08
-4.97677e-05
-4.91704e-08
-4.98527e-05
-4.85886e-08
-4.99383e-05
-4.76633e-08
-5.00242e-05
-4.65761e-08
-5.01102e-05
-4.54093e-08
-5.01963e-05
-4.42253e-08
-5.02822e-05
-4.3045e-08
-5.0368e-05
-4.18871e-08
-5.04537e-05
-4.07573e-08
-5.05391e-05
-3.96498e-08
-5.06243e-05
-3.85729e-08
-5.07091e-05
-3.75127e-08
-5.07937e-05
-3.6482e-08
-5.08779e-05
-3.54727e-08
-5.09616e-05
-3.4506e-08
-5.1045e-05
-3.35754e-08
-5.1128e-05
-3.26657e-08
-5.12105e-05
-3.16901e-08
-5.12925e-05
-3.083e-08
-5.13738e-05
-3.01148e-08
-5.14542e-05
-2.94954e-08
-5.15338e-05
-2.88975e-08
-5.16125e-05
-2.83933e-08
-5.16903e-05
-2.79581e-08
-5.17673e-05
-2.76303e-08
-5.18435e-05
-2.73249e-08
-5.19189e-05
-2.70745e-08
-5.19935e-05
-2.68693e-08
-5.20675e-05
-2.67669e-08
-5.21409e-05
-2.67492e-08
-5.22137e-05
-2.68545e-08
-5.2286e-05
-2.70635e-08
-5.23578e-05
-2.73664e-08
-5.24292e-05
-2.77699e-08
-5.25003e-05
-2.82698e-08
-5.25712e-05
-2.88641e-08
-5.26419e-05
-2.95361e-08
-5.27126e-05
-3.02734e-08
-5.27832e-05
-3.10604e-08
-5.28539e-05
-3.18709e-08
-5.29248e-05
-3.26749e-08
-5.29959e-05
-3.34581e-08
-5.30674e-05
-3.41764e-08
-5.31394e-05
-3.48075e-08
-5.32119e-05
-3.52918e-08
-5.3285e-05
-3.55789e-08
-5.33589e-05
-3.55988e-08
-5.34336e-05
-3.52758e-08
-5.35093e-05
-3.45327e-08
-5.35859e-05
-3.3357e-08
-5.36636e-05
-3.17466e-08
-5.37426e-05
-2.95909e-08
-5.3823e-05
-2.67804e-08
-5.39049e-05
-2.32723e-08
-5.39884e-05
-1.90275e-08
-5.40736e-05
-1.40002e-08
-5.41606e-05
-8.06551e-09
-5.42491e-05
-1.5269e-09
-5.43405e-05
7.83264e-09
-5.4434e-05
1.65002e-08
-5.45297e-05
2.61686e-08
-5.46279e-05
3.68893e-08
-5.47288e-05
4.8563e-08
-5.48324e-05
6.10517e-08
-5.49389e-05
7.41343e-08
-5.50486e-05
8.74978e-08
-5.51618e-05
1.00964e-07
-5.52784e-05
1.14306e-07
-5.53992e-05
1.26211e-07
-5.55244e-05
1.36297e-07
-5.5654e-05
1.43732e-07
-5.57884e-05
1.47462e-07
-5.59279e-05
1.46207e-07
-5.60724e-05
1.38366e-07
-5.62221e-05
1.22401e-07
-5.63787e-05
9.67973e-08
-5.65415e-05
6.04861e-08
-5.67112e-05
1.19739e-08
-5.68884e-05
-5.10635e-08
-5.70735e-05
-1.27465e-07
-5.72656e-05
-2.1807e-07
-5.74632e-05
-3.20767e-07
-5.76633e-05
-4.30953e-07
-5.78601e-05
-5.42562e-07
-5.80429e-05
-6.46469e-07
-5.81945e-05
-7.30823e-07
-5.82858e-05
-7.82401e-07
-5.82766e-05
-7.83379e-07
-5.80808e-05
-7.01999e-07
-5.75382e-05
-4.63318e-07
-5.63912e-05
4.88077e-08
-5.41973e-05
1.01964e-06
-5.02519e-05
2.64365e-06
4.64097e-06
-4.40141e-05
-5.07358e-05
1.67636e-08
-5.07864e-05
1.93406e-08
-5.08482e-05
2.18698e-08
-5.09173e-05
2.36868e-08
-5.09903e-05
2.49157e-08
-5.10652e-05
2.57676e-08
-5.11408e-05
2.63314e-08
-5.12161e-05
2.67088e-08
-5.12907e-05
2.69443e-08
-5.13644e-05
2.70681e-08
-5.14369e-05
2.71084e-08
-5.15083e-05
2.70798e-08
-5.15784e-05
2.70081e-08
-5.16472e-05
2.6897e-08
-5.17148e-05
2.67707e-08
-5.17812e-05
2.66279e-08
-5.18463e-05
2.64926e-08
-5.19103e-05
2.63564e-08
-5.19731e-05
2.62406e-08
-5.20348e-05
2.61236e-08
-5.20955e-05
2.60238e-08
-5.21551e-05
2.59212e-08
-5.22138e-05
2.58606e-08
-5.22715e-05
2.58368e-08
-5.23283e-05
2.57921e-08
-5.23843e-05
2.56873e-08
-5.24397e-05
2.55728e-08
-5.24943e-05
2.54593e-08
-5.25483e-05
2.53407e-08
-5.26018e-05
2.51822e-08
-5.26548e-05
2.49786e-08
-5.27073e-05
2.4809e-08
-5.27596e-05
2.47279e-08
-5.28116e-05
2.46619e-08
-5.28635e-05
2.45509e-08
-5.29153e-05
2.44105e-08
-5.2967e-05
2.42209e-08
-5.30188e-05
2.39971e-08
-5.30707e-05
2.37448e-08
-5.31228e-05
2.34609e-08
-5.31752e-05
2.31496e-08
-5.32279e-05
2.28145e-08
-5.3281e-05
2.247e-08
-5.33346e-05
2.21303e-08
-5.33888e-05
2.18106e-08
-5.34436e-05
2.15354e-08
-5.34991e-05
2.13353e-08
-5.35555e-05
2.12221e-08
-5.36127e-05
2.12507e-08
-5.36708e-05
2.14397e-08
-5.373e-05
2.18513e-08
-5.37903e-05
2.25237e-08
-5.38518e-05
2.35428e-08
-5.39145e-05
2.49647e-08
-5.39786e-05
2.68643e-08
-5.40441e-05
2.92706e-08
-5.41111e-05
3.21912e-08
-5.41797e-05
3.57612e-08
-5.425e-05
4.00885e-08
-5.43221e-05
4.52065e-08
-5.43961e-05
5.11341e-08
-5.44722e-05
5.79684e-08
-5.45502e-05
6.56403e-08
-5.46308e-05
7.45774e-08
-5.4713e-05
8.52228e-08
-5.47979e-05
9.63076e-08
-5.48854e-05
1.08397e-07
-5.49757e-05
1.21612e-07
-5.50689e-05
1.35912e-07
-5.51651e-05
1.51183e-07
-5.52646e-05
1.6723e-07
-5.53675e-05
1.83813e-07
-5.54741e-05
2.00702e-07
-5.55844e-05
2.17493e-07
-5.56989e-05
2.3333e-07
-5.58179e-05
2.4762e-07
-5.59416e-05
2.59545e-07
-5.60703e-05
2.68077e-07
-5.62044e-05
2.71952e-07
-5.63443e-05
2.69704e-07
-5.64904e-05
2.59765e-07
-5.66434e-05
2.40772e-07
-5.68029e-05
2.10835e-07
-5.6969e-05
1.68636e-07
-5.71426e-05
1.13069e-07
-5.73229e-05
4.34027e-08
-5.75098e-05
-4.04807e-08
-5.77021e-05
-1.37685e-07
-5.7896e-05
-2.46243e-07
-5.80848e-05
-3.62813e-07
-5.82575e-05
-4.82797e-07
-5.8396e-05
-6.01379e-07
-5.8472e-05
-7.15505e-07
-5.84393e-05
-8.25508e-07
-5.82189e-05
-9.32627e-07
-5.7648e-05
-1.04592e-06
-5.64435e-05
-1.17019e-06
-5.41241e-05
-1.31537e-06
-4.99927e-05
-1.50066e-06
-1.65844e-06
-4.36973e-05
-5.05003e-05
5.4794e-08
-5.05515e-05
7.04741e-08
-5.06143e-05
8.46671e-08
-5.06845e-05
9.38739e-08
-5.07589e-05
9.93571e-08
-5.08355e-05
1.02375e-07
-5.0913e-05
1.0379e-07
-5.09905e-05
1.04227e-07
-5.10676e-05
1.04028e-07
-5.1144e-05
1.03431e-07
-5.12195e-05
1.02569e-07
-5.1294e-05
1.01541e-07
-5.13674e-05
1.00406e-07
-5.14397e-05
9.92033e-08
-5.1511e-05
9.797e-08
-5.15811e-05
9.67188e-08
-5.16501e-05
9.54818e-08
-5.17181e-05
9.42561e-08
-5.17849e-05
9.30701e-08
-5.18508e-05
9.19028e-08
-5.19156e-05
9.07833e-08
-5.19794e-05
8.9685e-08
-5.20423e-05
8.86658e-08
-5.21043e-05
8.76765e-08
-5.21653e-05
8.67436e-08
-5.22256e-05
8.5803e-08
-5.2285e-05
8.49236e-08
-5.23438e-05
8.40585e-08
-5.24019e-05
8.32585e-08
-5.24593e-05
8.24295e-08
-5.25161e-05
8.15775e-08
-5.25723e-05
8.0797e-08
-5.2628e-05
8.0264e-08
-5.26834e-05
7.97854e-08
-5.27385e-05
7.93274e-08
-5.27932e-05
7.88731e-08
-5.28478e-05
7.84694e-08
-5.29023e-05
7.81009e-08
-5.29567e-05
7.77595e-08
-5.30112e-05
7.74599e-08
-5.30657e-05
7.7209e-08
-5.31204e-05
7.70113e-08
-5.31754e-05
7.68756e-08
-5.32306e-05
7.68201e-08
-5.32863e-05
7.68569e-08
-5.33425e-05
7.7011e-08
-5.33992e-05
7.73116e-08
-5.34566e-05
7.77799e-08
-5.35147e-05
7.84571e-08
-5.35735e-05
7.93766e-08
-5.36333e-05
8.05867e-08
-5.36939e-05
8.21368e-08
-5.37556e-05
8.41036e-08
-5.38184e-05
8.65441e-08
-5.38823e-05
8.95361e-08
-5.39475e-05
9.31106e-08
-5.4014e-05
9.72748e-08
-5.4082e-05
1.0218e-07
-5.41514e-05
1.07976e-07
-5.42225e-05
1.14665e-07
-5.42954e-05
1.22257e-07
-5.43701e-05
1.30821e-07
-5.44468e-05
1.40421e-07
-5.45255e-05
1.51387e-07
-5.46061e-05
1.63747e-07
-5.4689e-05
1.77044e-07
-5.47743e-05
1.91497e-07
-5.48621e-05
2.0719e-07
-5.49526e-05
2.24114e-07
-5.5046e-05
2.42185e-07
-5.51424e-05
2.61238e-07
-5.52421e-05
2.81069e-07
-5.53453e-05
3.01428e-07
-5.54521e-05
3.21883e-07
-5.5563e-05
3.41778e-07
-5.56783e-05
3.60478e-07
-5.57983e-05
3.77173e-07
-5.59234e-05
3.90861e-07
-5.60541e-05
4.0033e-07
-5.61907e-05
4.04177e-07
-5.63338e-05
4.00914e-07
-5.64839e-05
3.89031e-07
-5.66415e-05
3.66762e-07
-5.6807e-05
3.32613e-07
-5.698e-05
2.84865e-07
-5.71598e-05
2.22194e-07
-5.73456e-05
1.44555e-07
-5.75346e-05
5.10913e-08
-5.77239e-05
-5.65944e-08
-5.79079e-05
-1.77764e-07
-5.80749e-05
-3.14072e-07
-5.82072e-05
-4.66496e-07
-5.8277e-05
-6.42226e-07
-5.82391e-05
-8.58905e-07
-5.80105e-05
-1.15548e-06
-5.7443e-05
-1.60637e-06
-5.6261e-05
-2.34355e-06
-5.39767e-05
-3.58921e-06
-4.99034e-05
-5.5618e-06
-7.87523e-06
-4.36727e-05
-4.87853e-05
8.34424e-08
-4.88357e-05
1.20834e-07
-4.88987e-05
1.47662e-07
-4.897e-05
1.65176e-07
-4.90466e-05
1.75957e-07
-4.91265e-05
1.82286e-07
-4.92086e-05
1.85856e-07
-4.92921e-05
1.87693e-07
-4.93765e-05
1.8846e-07
-4.94616e-05
1.88548e-07
-4.95473e-05
1.88206e-07
-4.96333e-05
1.87584e-07
-4.97197e-05
1.86777e-07
-4.98064e-05
1.85845e-07
-4.98933e-05
1.84831e-07
-4.99803e-05
1.83758e-07
-5.00675e-05
1.82653e-07
-5.01548e-05
1.81526e-07
-5.02421e-05
1.80392e-07
-5.03295e-05
1.79245e-07
-5.04168e-05
1.78098e-07
-5.05041e-05
1.7694e-07
-5.05913e-05
1.75801e-07
-5.06783e-05
1.74649e-07
-5.07651e-05
1.73523e-07
-5.08518e-05
1.72381e-07
-5.09382e-05
1.7127e-07
-5.10243e-05
1.70142e-07
-5.11102e-05
1.69041e-07
-5.11957e-05
1.67887e-07
-5.12809e-05
1.66684e-07
-5.13656e-05
1.65451e-07
-5.14497e-05
1.64283e-07
-5.15331e-05
1.6303e-07
-5.16156e-05
1.61756e-07
-5.16974e-05
1.60484e-07
-5.17783e-05
1.59292e-07
-5.18585e-05
1.58151e-07
-5.1938e-05
1.57072e-07
-5.20168e-05
1.56076e-07