/*--------------------------------*- C++ -*----------------------------------*\
| =========                 |                                                 |
| \\      /  F ield         | OpenFOAM: The Open Source CFD Toolbox           |
|  \\    /   O peration     | Version:  2.1.0                                 |
|   \\  /    A nd           | Web:      www.OpenFOAM.org                      |
|    \\/     M anipulation  |                                                 |
\*---------------------------------------------------------------------------*/
FoamFile
{
    version     2.0;
    format      ascii;
    class       volScalarField;
    location    "0.21";
    object      rho;
}
// * * * * * * * * * * * * * * * * * * * * * * * * * * * * * * * * * * * * * //

dimensions      [1 -3 0 0 0 0 0];

internalField   nonuniform List<scalar> 
6400
(
1000
1000
1000
1000
1000
1000
1000
1000
1000
1000
1000
1000
1000
1000
1000
1000
1000
1000
1000
1000
1000
1000
999.999
999.999
999.999
999.999
999.999
999.999
999.998
999.998
999.998
999.998
999.997
999.997
999.996
999.995
999.995
999.994
999.993
999.991
999.99
999.989
999.987
999.985
999.982
999.98
999.977
999.973
999.969
999.965
999.96
999.955
999.949
999.942
999.934
999.925
999.915
999.904
999.892
999.878
999.863
999.846
999.827
999.806
999.783
999.757
999.728
999.696
999.661
999.622
999.579
999.531
999.479
999.421
999.356
999.285
999.207
999.119
999.022
998.914
998.793
998.658
998.508
998.34
998.154
997.947
997.721
997.478
997.222
996.968
996.741
996.601
996.666
997.125
998.038
997.829
992.785
982.247
973.472
969.236
1000
1000
1000
1000
1000
1000
1000
1000
1000
1000
1000
1000
1000
1000
1000
999.999
999.999
999.999
999.999
999.999
999.999
999.998
999.998
999.998
999.997
999.997
999.996
999.996
999.995
999.994
999.993
999.992
999.99
999.989
999.987
999.985
999.982
999.979
999.976
999.972
999.968
999.963
999.958
999.952
999.944
999.936
999.927
999.917
999.905
999.891
999.877
999.86
999.841
999.819
999.795
999.768
999.738
999.705
999.667
999.624
999.577
999.525
999.466
999.4
999.327
999.246
999.155
999.054
998.942
998.817
998.679
998.525
998.353
998.163
997.952
997.717
997.457
997.168
996.847
996.491
996.097
995.661
995.18
994.649
994.067
993.43
992.735
991.982
991.168
990.288
989.33
988.265
987.028
985.497
983.486
980.844
977.649
973.937
970.407
967.79
1000
1000
1000
1000
1000
1000
1000
1000
1000
1000
999.999
999.999
999.999
999.999
999.999
999.999
999.998
999.998
999.998
999.997
999.997
999.996
999.996
999.995
999.994
999.993
999.992
999.991
999.989
999.987
999.985
999.983
999.98
999.977
999.973
999.968
999.963
999.958
999.951
999.944
999.935
999.925
999.914
999.901
999.887
999.871
999.852
999.831
999.807
999.781
999.75
999.716
999.678
999.634
999.586
999.531
999.47
999.401
999.324
999.238
999.142
999.035
998.915
998.782
998.633
998.468
998.283
998.079
997.851
997.599
997.318
997.007
996.663
996.282
995.86
995.394
994.881
994.315
993.695
993.016
992.275
991.47
990.601
989.665
988.666
987.604
986.484
985.309
984.086
982.818
981.508
980.157
978.759
977.302
975.772
974.157
972.405
970.493
968.534
966.715
1000
1000
1000
1000
1000
1000
1000
999.999
999.999
999.999
999.999
999.999
999.999
999.998
999.998
999.998
999.997
999.997
999.996
999.995
999.994
999.993
999.992
999.991
999.989
999.987
999.985
999.982
999.979
999.976
999.972
999.967
999.962
999.956
999.949
999.941
999.931
999.92
999.908
999.894
999.878
999.86
999.839
999.815
999.789
999.758
999.723
999.684
999.64
999.59
999.533
999.47
999.398
999.318
999.228
999.127
999.014
998.887
998.747
998.59
998.415
998.221
998.005
997.767
997.503
997.211
996.89
996.536
996.148
995.723
995.259
994.753
994.203
993.609
992.967
992.278
991.54
990.754
989.921
989.042
988.119
987.154
986.152
985.117
984.051
982.961
981.851
980.724
979.586
978.44
977.289
976.134
974.978
973.818
972.654
971.483
970.258
968.97
967.636
966.307
1000
1000
1000
1000
999.999
999.999
999.999
999.999
999.999
999.999
999.998
999.998
999.997
999.997
999.996
999.996
999.995
999.994
999.993
999.991
999.99
999.988
999.986
999.983
999.981
999.977
999.973
999.969
999.963
999.957
999.95
999.942
999.933
999.922
999.909
999.895
999.879
999.86
999.839
999.814
999.786
999.755
999.719
999.678
999.632
999.579
999.52
999.454
999.379
999.295
999.201
999.095
998.977
998.846
998.7
998.537
998.357
998.158
997.939
997.697
997.432
997.142
996.825
996.48
996.105
995.7
995.262
994.79
994.285
993.745
993.169
992.558
991.912
991.23
990.514
989.765
988.983
988.171
987.33
986.462
985.569
984.654
983.719
982.767
981.798
980.817
979.824
978.823
977.813
976.799
975.782
974.764
973.748
972.738
971.738
970.755
969.761
968.759
967.769
966.857
1000
999.999
999.999
999.999
999.999
999.999
999.999
999.998
999.998
999.998
999.997
999.996
999.996
999.995
999.994
999.993
999.991
999.99
999.988
999.986
999.983
999.98
999.977
999.973
999.968
999.963
999.956
999.949
999.94
999.931
999.919
999.906
999.892
999.875
999.855
999.833
999.808
999.779
999.746
999.709
999.667
999.62
999.566
999.506
999.439
999.364
999.28
999.186
999.081
998.965
998.837
998.695
998.538
998.366
998.178
997.971
997.746
997.501
997.235
996.948
996.637
996.303
995.944
995.56
995.15
994.714
994.251
993.762
993.245
992.701
992.131
991.534
990.911
990.263
989.591
988.895
988.176
987.436
986.675
985.894
985.095
984.278
983.444
982.594
981.729
980.849
979.954
979.046
978.125
977.194
976.253
975.306
974.357
973.413
972.483
971.581
970.704
969.868
969.125
968.604
999.999
999.999
999.999
999.999
999.998
999.998
999.998
999.997
999.997
999.996
999.995
999.995
999.994
999.992
999.991
999.989
999.987
999.985
999.982
999.979
999.975
999.971
999.966
999.961
999.954
999.947
999.938
999.928
999.917
999.904
999.889
999.872
999.853
999.831
999.806
999.778
999.747
999.711
999.672
999.627
999.577
999.522
999.46
999.391
999.315
999.231
999.139
999.036
998.924
998.802
998.668
998.521
998.362
998.189
998.002
997.8
997.582
997.348
997.097
996.828
996.541
996.235
995.91
995.566
995.201
994.816
994.41
993.984
993.536
993.067
992.577
992.066
991.534
990.981
990.407
989.813
989.199
988.566
987.912
987.239
986.547
985.836
985.105
984.355
983.586
982.797
981.988
981.158
980.308
979.438
978.551
977.649
976.738
975.827
974.926
974.058
973.251
972.529
971.977
971.788
999.999
999.999
999.999
999.998
999.998
999.998
999.997
999.996
999.996
999.995
999.994
999.993
999.992
999.99
999.988
999.986
999.984
999.981
999.978
999.975
999.97
999.966
999.96
999.954
999.947
999.939
999.929
999.919
999.907
999.894
999.878
999.861
999.842
999.821
999.797
999.771
999.741
999.709
999.672
999.632
999.588
999.54
999.486
999.428
999.364
999.294
999.218
999.135
999.045
998.948
998.842
998.729
998.606
998.474
998.333
998.181
998.019
997.846
997.661
997.463
997.254
997.031
996.794
996.544
996.279
995.999
995.704
995.392
995.065
994.721
994.36
993.981
993.585
993.171
992.738
992.286
991.816
991.326
990.816
990.287
989.739
989.171
988.582
987.971
987.335
986.675
985.988
985.273
984.527
983.751
982.945
982.11
981.25
980.374
979.492
978.625
977.85
977.19
976.76
976.788
999.999
999.999
999.998
999.998
999.998
999.997
999.997
999.996
999.996
999.995
999.994
999.993
999.991
999.99
999.988
999.987
999.984
999.982
999.979
999.976
999.972
999.968
999.964
999.958
999.953
999.946
999.939
999.93
999.921
999.911
999.899
999.887
999.873
999.857
999.84
999.821
999.8
999.778
999.753
999.725
999.695
999.663
999.627
999.588
999.546
999.501
999.452
999.398
999.341
999.279
999.212
999.14
999.063
998.981
998.893
998.798
998.698
998.59
998.476
998.355
998.226
998.089
997.944
997.791
997.629
997.458
997.278
997.088
996.888
996.678
996.457
996.225
995.981
995.727
995.46
995.182
994.892
994.589
994.272
993.942
993.596
993.236
992.86
992.469
992.062
991.636
991.188
990.713
990.21
989.675
989.105
988.497
987.849
987.162
986.437
985.681
984.925
984.325
983.945
984.009
999.999
999.999
999.999
999.998
999.998
999.998
999.997
999.997
999.996
999.996
999.995
999.994
999.994
999.993
999.991
999.99
999.989
999.987
999.985
999.983
999.981
999.978
999.975
999.972
999.968
999.964
999.96
999.955
999.949
999.943
999.936
999.928
999.92
999.911
999.901
999.89
999.877
999.864
999.85
999.834
999.817
999.798
999.777
999.755
999.732
999.706
999.678
999.648
999.616
999.581
999.544
999.504
999.461
999.416
999.367
999.315
999.26
999.202
999.14
999.074
999.004
998.931
998.854
998.772
998.686
998.596
998.502
998.404
998.301
998.194
998.083
997.968
997.85
997.727
997.601
997.471
997.338
997.201
997.062
996.919
996.773
996.624
996.47
996.312
996.147
995.979
995.809
995.635
995.454
995.265
995.067
994.859
994.639
994.406
994.158
993.891
993.6
993.282
993.068
993.088
999.999
999.999
999.999
999.999
999.999
999.999
999.999
999.998
999.998
999.998
999.997
999.997
999.996
999.996
999.995
999.995
999.994
999.993
999.992
999.991
999.99
999.988
999.987
999.985
999.983
999.981
999.979
999.976
999.973
999.97
999.966
999.963
999.958
999.954
999.948
999.943
999.937
999.93
999.923
999.915
999.906
999.897
999.887
999.876
999.864
999.851
999.838
999.823
999.807
999.791
999.773
999.753
999.733
999.711
999.689
999.664
999.639
999.612
999.583
999.554
999.523
999.49
999.456
999.421
999.385
999.348
999.31
999.27
999.23
999.19
999.149
999.108
999.067
999.026
998.987
998.948
998.91
998.874
998.84
998.808
998.779
998.753
998.729
998.708
998.69
998.674
998.66
998.65
998.646
998.649
998.658
998.673
998.697
998.731
998.776
998.833
998.903
998.988
999.088
999.195
1000
1000
1000
1000
999.999
999.999
999.999
999.999
999.999
999.999
999.999
999.999
999.998
999.998
999.998
999.998
999.997
999.997
999.996
999.996
999.995
999.995
999.994
999.993
999.992
999.992
999.991
999.989
999.988
999.987
999.985
999.984
999.982
999.98
999.978
999.975
999.973
999.97
999.967
999.964
999.96
999.956
999.952
999.948
999.943
999.938
999.933
999.927
999.921
999.914
999.908
999.9
999.893
999.885
999.877
999.868
999.859
999.85
999.84
999.83
999.82
999.81
999.799
999.789
999.778
999.768
999.758
999.748
999.738
999.729
999.72
999.713
999.706
999.7
999.695
999.691
999.689
999.689
999.69
999.692
999.697
999.703
999.71
999.719
999.729
999.741
999.753
999.765
999.777
999.79
999.804
999.819
999.835
999.852
999.87
999.887
999.905
999.922
999.937
999.95
1000
1000
1000
1000
1000
1000
1000
1000
1000
999.999
999.999
999.999
999.999
999.999
999.999
999.999
999.999
999.999
999.998
999.998
999.998
999.998
999.998
999.997
999.997
999.997
999.996
999.996
999.995
999.995
999.994
999.994
999.993
999.992
999.992
999.991
999.99
999.989
999.988
999.987
999.986
999.985
999.983
999.982
999.981
999.979
999.978
999.976
999.974
999.972
999.971
999.969
999.967
999.965
999.963
999.961
999.959
999.957
999.954
999.952
999.95
999.948
999.946
999.945
999.943
999.942
999.94
999.939
999.938
999.938
999.937
999.937
999.938
999.938
999.939
999.941
999.943
999.945
999.947
999.95
999.954
999.957
999.961
999.964
999.968
999.972
999.975
999.979
999.982
999.984
999.986
999.988
999.99
999.992
999.994
999.995
999.996
999.997
999.998
999.999
1000
1000
1000
1000
1000
1000
1000
1000
1000
1000
1000
1000
1000
1000
1000
1000
999.999
999.999
999.999
999.999
999.999
999.999
999.999
999.999
999.999
999.999
999.998
999.998
999.998
999.998
999.998
999.998
999.997
999.997
999.997
999.997
999.996
999.996
999.996
999.996
999.995
999.995
999.995
999.994
999.994
999.994
999.993
999.993
999.992
999.992
999.992
999.991
999.991
999.991
999.99
999.99
999.99
999.989
999.989
999.989
999.989
999.988
999.988
999.988
999.988
999.988
999.988
999.988
999.989
999.989
999.989
999.989
999.99
999.99
999.991
999.991
999.992
999.993
999.993
999.994
999.995
999.995
999.996
999.997
999.997
999.998
999.998
999.999
999.999
999.999
999.999
1000
1000
1000
1000
1000
1000
1000
1000
1000
1000
1000
1000
1000
1000
1000
1000
1000
1000
1000
1000
1000
1000
1000
1000
1000
1000
1000
1000
1000
1000
1000
1000
1000
1000
999.999
999.999
999.999
999.999
999.999
999.999
999.999
999.999
999.999
999.999
999.999
999.999
999.999
999.999
999.999
999.998
999.998
999.998
999.998
999.998
999.998
999.998
999.998
999.998
999.998
999.998
999.998
999.998
999.997
999.997
999.997
999.997
999.997
999.997
999.997
999.997
999.997
999.997
999.998
999.998
999.998
999.998
999.998
999.998
999.998
999.998
999.998
999.998
999.998
999.999
999.999
999.999
999.999
999.999
999.999
999.999
999.999
1000
1000
1000
1000
1000
1000
1000
1000
1000
1000
1000
1000
1000
1000
1000
1000
1000
1000
1000
1000
1000
1000
1000
1000
1000
1000
1000
1000
1000
1000
1000
1000
1000
1000
1000
1000
1000
1000
1000
1000
1000
1000
1000
1000
1000
1000
1000
1000
1000
1000
1000
1000
1000
1000
1000
1000
1000
1000
999.999
999.999
999.999
999.999
999.999
999.999
999.999
999.999
999.999
999.999
999.999
999.999
999.999
999.999
999.999
999.999
999.999
999.999
999.999
999.999
999.999
999.999
999.999
999.999
999.999
999.999
1000
1000
1000
1000
1000
1000
1000
1000
1000
1000
1000
1000
1000
1000
1000
1000
1000
1000
1000
1000
1000
1000
1000
1000
1000
1000
1000
1000
1000
1000
1000
1000
1000
1000
1000
1000
1000
1000
1000
1000
1000
1000
1000
1000
1000
1000
1000
1000
1000
1000
1000
1000
1000
1000
1000
1000
1000
1000
1000
1000
1000
1000
1000
1000
1000
1000
1000
1000
1000
1000
1000
1000
1000
1000
1000
1000
1000
1000
1000
1000
1000
1000
1000
1000
1000
1000
1000
1000
1000
1000
1000
1000
1000
1000
1000
1000
1000
1000
1000
1000
1000
1000
1000
1000
1000
1000
1000
1000
1000
1000
1000
1000
1000
1000
1000
1000
1000
1000
1000
1000
1000
1000
1000
1000
1000
1000
1000
1000
1000
1000
1000
1000
1000
1000
1000
1000
1000
1000
1000
1000
1000
1000
1000
1000
1000
1000
1000
1000
1000
1000
1000
1000
1000
1000
1000
1000
1000
1000
1000
1000
1000
1000
1000
1000
1000
1000
1000
1000
1000
1000
1000
1000
1000
1000
1000
1000
1000
1000
1000
1000
1000
1000
1000
1000
1000
1000
1000
1000
1000
1000
1000
1000
1000
1000
1000
1000
1000
1000
1000
1000
1000
1000
1000
1000
1000
1000
1000
1000
1000
1000
1000
1000
1000
1000
1000
1000
1000
1000
1000
1000
1000
1000
1000
1000
1000
1000
1000
1000
1000
1000
1000
1000
1000
1000
1000
1000
1000
1000
1000
1000
1000
1000
1000
1000
1000
1000
1000
1000
1000
1000
1000
1000
1000
1000
1000
1000
1000
1000
1000
1000
1000
1000
1000
1000
1000
1000
1000
1000
1000
1000
1000
1000
1000
1000
1000
1000
1000
1000
1000
1000
1000
1000
1000
1000
1000
1000
1000
1000
1000
1000
1000
1000
1000
1000
1000
1000
1000
1000
1000
1000
1000
1000
1000
1000
1000
1000
1000
1000
1000
1000
1000
1000
1000
1000
1000
1000
1000
1000
1000
1000
1000
1000
1000
1000
1000
1000
1000
1000
1000
1000
1000
1000
1000
1000
1000
1000
1000
1000
1000
1000
1000
1000
1000
1000
1000
1000
1000
1000
1000
1000
1000
1000
1000
1000
1000
1000
1000
1000
1000
1000
1000
1000
1000
1000
1000
1000
1000
1000
1000
1000
1000
1000
1000
1000
1000
1000
1000
1000
1000
1000
1000
1000
1000
1000
1000
1000
1000
1000
1000
1000
1000
1000
1000
1000
1000
1000
1000
1000
1000
1000
1000
1000
1000
1000
1000
1000
1000
1000
1000
1000
1000
1000
1000
1000
1000
1000
1000
1000
1000
1000
1000
1000
1000
1000
1000
1000
1000
1000
1000
1000
1000
1000
1000
1000
967.664
961.966
961.066
961.364
961.942
962.553
963.138
963.694
964.24
964.812
965.465
966.276
967.354
968.85
970.956
973.886
977.834
982.926
989.126
996.07
965.912
962.316
962.016
962.552
963.259
963.964
964.632
965.272
965.913
966.598
967.387
968.365
969.642
971.359
973.68
976.767
980.742
985.657
991.355
997.362
964.902
963.099
963.306
964.028
964.838
965.628
966.381
967.115
967.866
968.682
969.628
970.786
972.262
974.179
976.661
979.815
983.714
988.34
993.434
998.4
964.981
964.46
965.034
965.887
966.776
967.64
968.48
969.319
970.193
971.154
972.262
973.597
975.246
977.304
979.855
982.972
986.688
990.908
995.306
999.146
966.232
966.504
967.311
968.249
969.198
970.133
971.062
972.01
973.013
974.113
975.364
976.833
978.585
980.685
983.2
986.176
989.588
993.28
996.913
999.611
968.664
969.359
970.293
971.285
972.286
973.287
974.299
975.344
976.446
977.633
978.96
980.473
982.221
984.259
986.629
989.338
992.317
995.386
998.196
999.853
972.371
973.25
974.238
975.256
976.284
977.318
978.361
979.426
980.536
981.72
983.02
984.466
986.098
987.951
990.039
992.343
994.779
997.157
999.111
999.956
977.648
978.546
979.496
980.458
981.417
982.368
983.322
984.289
985.294
986.362
987.505
988.746
990.112
991.621
993.279
995.057
996.869
998.518
999.656
999.99
984.787
985.51
986.251
986.986
987.713
988.435
989.164
989.903
990.659
991.437
992.253
993.118
994.053
995.065
996.168
997.339
998.485
999.41
999.901
999.997
993.482
993.824
994.178
994.53
994.883
995.236
995.582
995.922
996.257
996.594
996.938
997.299
997.686
998.109
998.577
999.082
999.543
999.856
999.981
999.999
999.308
999.338
999.377
999.422
999.468
999.513
999.556
999.6
999.642
999.686
999.728
999.774
999.819
999.867
999.914
999.95
999.975
999.989
999.999
1000
999.958
999.959
999.961
999.963
999.965
999.968
999.972
999.975
999.978
999.981
999.984
999.987
999.99
999.993
999.996
999.998
999.999
1000
1000
1000
999.999
999.999
999.999
999.999
999.999
999.999
999.999
999.999
999.999
999.999
999.999
1000
1000
1000
1000
1000
1000
1000
1000
1000
1000
1000
1000
1000
1000
1000
1000
1000
1000
1000
1000
1000
1000
1000
1000
1000
1000
1000
1000
1000
1000
1000
1000
1000
1000
1000
1000
1000
1000
1000
1000
1000
1000
1000
1000
1000
1000
1000
1000
1000
1000
1000
1000
1000
1000
1000
1000
1000
1000
1000
1000
1000
1000
1000
1000
1000
1000
1000
1000
1000
1000
1000
1000
1000
1000
1000
1000
1000
1000
1000
1000
1000
1000
1000
1000
1000
1000
1000
1000
1000
1000
1000
1000
1000
1000
1000
1000
1000
1000
1000
1000
1000
1000
1000
1000
1000
1000
1000
1000
1000
1000
1000
1000
1000
1000
1000
1000
1000
1000
1000
1000
1000
1000
1000
1000
1000
1000
1000
1000
1000
1000
1000
1000
1000
1000
1000
1000
1000
1000
1000
1000
1000
1000
1000
1000
1000
1000
1000
1000
1000
944.555
944.555
944.555
944.555
944.555
944.555
944.555
944.555
944.555
944.555
944.555
944.555
944.555
944.555
944.555
944.555
944.555
944.555
944.555
944.555
944.555
944.555
944.555
944.555
944.555
944.555
944.555
944.555
944.555
944.555
944.555
944.555
944.555
944.555
944.555
944.555
944.555
944.555
944.555
944.555
944.555
944.555
944.555
944.555
944.555
944.555
944.555
944.555
944.555
944.555
944.555
944.555
944.555
944.555
944.555
944.555
944.555
944.555
944.555
944.555
944.555
944.555
944.555
944.555
944.555
944.555
944.555
944.555
944.555
944.555
944.555
944.555
944.555
944.555
944.555
944.555
944.555
944.555
944.555
944.555
944.555
944.555
944.555
944.555
944.555
944.555
944.555
944.555
944.555
944.555
944.555
944.555
944.555
944.555
944.555
944.555
944.555
944.555
944.555
944.555
944.555
944.555
944.555
944.555
944.555
944.555
944.555
944.555
944.555
944.555
944.555
944.555
944.555
944.555
944.555
944.555
944.555
944.555
944.555
944.555
944.555
944.555
944.555
944.555
944.555
944.555
944.555
944.555
944.555
944.555
944.555
944.555
944.555
944.555
944.555
944.555
944.555
944.555
944.555
944.555
944.555
944.555
944.555
944.555
944.555
944.555
944.555
944.555
944.555
944.555
944.555
944.555
944.555
944.555
944.555
944.555
944.555
944.555
944.555
944.555
944.555
944.555
944.555
944.555
944.555
944.555
944.555
944.555
944.555
944.555
944.555
944.555
944.555
944.555
944.555
944.555
944.555
944.555
944.555
944.555
944.555
944.555
944.555
944.555
944.555
944.555
944.555
944.555
944.555
944.555
944.555
944.555
944.555
944.555
944.555
944.555
944.555
944.555
944.555
944.555
944.555
944.555
944.555
944.555
944.555
944.555
944.555
944.555
944.555
944.555
944.555
944.555
944.555
944.555
944.555
944.555
944.555
944.555
944.555
944.555
944.555
944.555
944.555
944.555
944.555
944.555
944.555
944.555
944.555
944.555
944.555
944.555
944.555
944.555
944.555
944.555
944.555
944.555
944.555
944.555
944.555
944.555
944.555
944.555
944.555
944.555
944.555
944.555
944.555
944.555
944.555
944.555
944.555
944.555
944.555
944.555
944.555
944.555
944.555
944.555
944.555
944.555
944.555
944.555
944.555
944.555
944.555
944.555
944.555
944.555
944.555
944.555
944.555
944.555
944.555
944.555
944.555
944.555
944.555
944.555
944.555
944.555
944.555
944.555
944.555
944.555
944.555
944.555
944.555
944.555
944.555
944.555
944.555
944.555
944.555
944.555
944.555
944.555
944.555
944.555
944.555
944.555
944.555
944.555
944.555
944.555
944.555
944.555
944.555
944.555
944.555
944.555
944.555
944.555
944.555
944.555
944.555
944.555
944.555
944.555
944.555
944.555
944.555
944.555
944.555
944.555
944.555
944.555
944.555
944.555
944.555
944.555
944.555
944.555
944.555
944.555
944.555
944.555
944.555
944.555
944.555
944.555
944.555
944.555
944.555
944.555
944.555
944.555
944.555
944.555
944.555
944.555
944.555
944.555
944.555
944.555
944.555
944.555
944.555
944.555
944.555
944.555
944.555
944.555
944.555
944.555
944.555
944.555
944.555
944.555
944.555
944.555
944.555
944.555
944.555
944.555
944.555
944.555
944.555
944.555
944.555
944.555
944.555
944.555
944.555
944.555
944.555
944.555
944.555
944.555
944.555
944.555
944.555
944.555
944.555
944.555
944.555
944.555
944.555
944.555
944.555
944.555
944.555
944.555
944.555
944.555
944.555
944.555
944.555
944.555
944.555
944.555
944.555
944.555
944.555
944.555
944.555
944.555
944.555
944.555
944.555
944.555
944.555
944.555
944.555
944.555
944.555
944.555
944.555
944.555
944.555
944.555
944.555
944.555
944.555
944.555
944.555
944.555
944.555
944.555
944.555
944.555
944.555
944.555
944.555
944.555
944.555
944.555
944.555
944.555
944.555
944.555
944.555
944.555
944.555
944.555
944.555
944.555
944.555
944.555
944.555
944.555
944.555
944.555
944.555
944.555
944.555
944.555
944.555
944.555
944.555
944.555
944.555
944.555
944.555
944.555
944.555
944.555
944.555
944.555
944.555
944.555
944.555
944.555
944.555
944.555
944.555
944.555
944.555
944.555
944.555
944.555
944.555
944.555
944.555
944.555
944.555
944.555
944.555
944.555
944.555
944.555
944.555
944.555
944.555
944.555
944.555
944.555
944.555
944.555
944.555
944.555
944.555
944.555
944.555
944.555
944.555
944.555
944.555
944.555
944.555
944.555
944.555
944.555
944.555
944.555
944.555
944.555
944.555
944.555
944.555
944.555
944.555
944.555
944.555
944.555
944.555
944.555
944.555
944.555
944.555
944.555
944.555
944.555
944.555
944.555
944.555
944.555
944.555
944.555
944.555
944.555
944.555
944.555
944.555
944.555
944.555
944.555
944.555
944.555
944.555
944.555
944.555
944.555
944.555
944.555
944.555
944.555
944.555
944.555
944.555
944.555
944.555
944.555
944.555
944.555
944.555
944.555
944.555
944.555
944.555
944.555
944.555
944.555
944.555
944.555
944.555
944.555
944.555
944.555
944.555
944.555
944.555
944.555
944.555
944.555
944.555
944.555
944.555
944.555
944.555
944.555
944.555
944.555
944.555
944.555
944.555
944.555
944.555
944.555
944.555
944.555
944.555
944.555
944.555
944.555
944.555
944.555
944.555
944.555
944.555
944.555
944.555
944.555
944.555
944.555
944.555
944.555
944.555
944.555
944.555
944.555
944.555
944.555
944.555
944.555
944.555
944.555
944.555
944.555
944.555
944.555
944.555
944.555
944.555
944.555
944.555
944.555
944.555
944.555
944.555
944.555
944.555
944.555
944.555
944.555
944.555
944.555
944.555
944.555
944.555
944.555
944.555
944.555
944.555
944.555
944.555
944.555
944.555
944.555
944.555
944.555
944.555
944.555
944.555
944.555
944.555
944.555
944.555
944.555
944.555
944.555
944.555
944.555
944.555
944.555
944.555
944.555
944.555
944.555
944.555
944.555
944.555
944.555
944.555
944.555
944.555
944.555
944.555
944.555
944.555
944.555
944.555
944.555
944.555
944.555
944.555
944.555
944.555
944.555
944.555
944.555
944.555
944.555
944.555
944.555
944.555
944.555
944.555
944.555
944.555
944.555
944.555
944.555
944.555
944.555
944.555
944.555
944.555
944.555
944.555
944.555
944.555
944.555
944.555
944.555
944.555
944.555
944.555
944.555
944.555
944.555
944.555
944.555
944.555
944.555
944.555
944.555
944.555
944.555
944.555
944.555
944.555
944.555
944.555
944.555
944.555
944.555
944.555
944.555
944.555
944.555
944.555
944.555
944.555
944.555
944.555
944.555
944.555
944.555
944.555
944.555
944.555
944.555
944.555
944.555
944.555
944.555
944.555
944.555
944.555
944.555
944.555
944.555
944.555
944.555
944.555
944.555
944.555
944.555
944.555
944.555
944.555
944.555
944.555
944.555
944.555
944.555
944.555
944.555
944.555
944.555
944.555
944.555
944.555
944.555
944.555
944.555
944.555
944.555
944.555
944.555
944.555
944.555
944.555
944.555
944.555
944.555
944.555
944.555
944.555
944.555
944.555
944.555
944.555
944.555
944.555
944.555
944.555
944.555
944.555
944.555
944.555
944.555
944.555
944.555
944.555
944.555
944.555
944.555
944.555
944.555
944.555
944.555
944.555
944.555
944.555
944.555
944.555
944.555
944.555
944.555
944.555
944.555
944.555
944.555
944.555
944.555
944.555
944.555
944.555
944.555
944.555
944.555
944.555
944.555
944.555
944.555
944.555
944.555
944.555
944.555
944.555
944.555
944.555
944.555
944.555
944.555
944.555
944.555
944.555
944.555
944.555
944.555
944.555
944.555
944.555
944.555
944.555
944.555
944.555
944.555
944.555
944.555
944.555
944.555
944.555
944.555
944.555
944.555
944.555
944.555
944.555
944.555
944.555
944.555
944.555
944.555
944.555
944.555
944.555
944.555
944.555
944.555
944.555
944.555
944.555
944.555
944.555
944.555
944.555
944.555
944.555
944.555
944.555
944.555
944.555
944.555
944.555
944.555
944.555
944.555
944.555
944.555
944.555
944.555
944.555
944.555
944.555
944.555
944.555
944.555
944.555
944.555
944.555
944.555
944.555
944.555
944.555
944.555
944.555
944.555
944.555
944.555
944.555
944.555
944.555
944.555
944.555
944.555
944.555
944.555
944.555
944.555
944.555
944.555
944.555
944.555
944.555
944.555
944.555
944.555
944.555
944.555
944.555
944.555
944.555
944.555
944.555
944.555
944.555
944.555
944.555
944.555
944.555
944.555
944.555
944.555
944.555
944.555
944.555
944.555
944.555
944.555
944.555
944.555
944.555
944.555
944.555
944.555
944.555
944.555
944.555
944.555
944.555
944.555
944.555
944.555
944.555
944.555
944.555
944.555
944.555
944.555
944.555
944.555
944.555
944.555
944.555
944.555
944.555
944.555
944.555
944.555
944.555
944.555
944.555
944.555
944.555
944.555
944.555
944.555
944.555
944.555
944.555
944.555
944.555
944.555
944.555
944.555
944.555
944.555
944.555
944.555
944.555
944.555
944.555
944.555
944.555
944.555
944.555
944.555
944.555
944.555
944.555
944.555
944.555
944.555
944.555
944.555
944.555
944.555
944.555
944.555
944.555
944.555
944.555
944.555
944.555
944.555
944.555
944.555
944.555
944.555
944.555
944.555
944.555
944.555
944.555
944.555
944.555
944.555
944.555
944.555
944.555
944.555
944.555
944.555
944.555
944.555
944.555
944.555
944.555
944.555
944.555
944.555
944.555
944.555
944.555
944.555
944.556
944.555
944.555
944.555
944.555
944.555
944.555
944.555
944.555
944.555
944.555
944.555
944.555
944.555
944.555
944.555
944.555
944.555
944.555
944.556
944.557
944.555
944.555
944.555
944.555
944.555
944.555
944.555
944.555
944.555
944.555
944.555
944.555
944.555
944.555
944.555
944.555
944.555
944.555
944.557
944.558
944.555
944.555
944.555
944.555
944.555
944.555
944.555
944.555
944.555
944.555
944.555
944.555
944.555
944.555
944.555
944.555
944.555
944.555
944.558
944.561
944.556
944.555
944.555
944.555
944.555
944.555
944.555
944.555
944.555
944.555
944.555
944.555
944.555
944.555
944.555
944.555
944.555
944.556
944.561
944.564
944.557
944.555
944.555
944.555
944.555
944.555
944.555
944.555
944.555
944.555
944.555
944.555
944.555
944.555
944.555
944.555
944.555
944.557
944.564
944.57
944.558
944.556
944.555
944.555
944.555
944.555
944.555
944.555
944.555
944.555
944.555
944.555
944.555
944.555
944.555
944.555
944.556
944.558
944.57
944.579
944.56
944.556
944.556
944.555
944.555
944.555
944.555
944.555
944.555
944.555
944.555
944.555
944.555
944.555
944.555
944.556
944.556
944.56
944.579
944.592
944.562
944.557
944.556
944.556
944.556
944.556
944.556
944.556
944.556
944.556
944.556
944.556
944.556
944.556
944.556
944.556
944.557
944.562
944.592
944.612
944.567
944.559
944.557
944.556
944.556
944.556
944.556
944.556
944.556
944.556
944.556
944.556
944.556
944.556
944.556
944.557
944.559
944.567
944.612
944.64
944.573
944.561
944.558
944.557
944.557
944.557
944.557
944.557
944.557
944.557
944.557
944.557
944.557
944.557
944.557
944.558
944.561
944.573
944.64
944.68
944.582
944.564
944.559
944.558
944.558
944.558
944.558
944.558
944.558
944.558
944.558
944.558
944.558
944.558
944.558
944.559
944.564
944.582
944.68
944.735
944.595
944.568
944.562
944.56
944.56
944.56
944.56
944.56
944.56
944.56
944.56
944.56
944.56
944.56
944.56
944.562
944.568
944.595
944.735
944.811
944.613
944.574
944.565
944.563
944.562
944.562
944.562
944.563
944.563
944.563
944.563
944.562
944.562
944.562
944.563
944.565
944.574
944.613
944.811
944.914
944.638
944.583
944.57
944.567
944.566
944.566
944.566
944.566
944.566
944.566
944.566
944.566
944.566
944.566
944.567
944.57
944.583
944.638
944.913
945.049
944.672
944.596
944.577
944.572
944.571
944.571
944.571
944.571
944.571
944.571
944.571
944.571
944.571
944.571
944.572
944.577
944.596
944.672
945.049
945.227
944.718
944.613
944.586
944.579
944.578
944.577
944.577
944.578
944.578
944.578
944.578
944.577
944.577
944.578
944.579
944.586
944.613
944.718
945.227
945.454
944.779
944.635
944.599
944.59
944.587
944.587
944.587
944.587
944.587
944.587
944.587
944.587
944.587
944.587
944.59
944.599
944.636
944.779
945.455
945.743
944.858
944.666
944.616
944.604
944.6
944.599
944.599
944.6
944.6
944.6
944.6
944.599
944.599
944.6
944.604
944.617
944.667
944.859
945.745
946.104
944.96
944.707
944.64
944.622
944.618
944.616
944.616
944.617
944.617
944.617
944.617
944.617
944.617
944.618
944.623
944.64
944.708
944.962
946.107
946.548
945.089
944.759
944.671
944.648
944.641
944.639
944.639
944.64
944.64
944.64
944.64
944.64
944.64
944.641
944.648
944.672
944.761
945.093
946.553
947.087
945.251
944.827
944.712
944.681
944.672
944.67
944.67
944.67
944.671
944.671
944.67
944.67
944.67
944.673
944.682
944.714
944.83
945.257
947.096
947.732
945.451
944.914
944.765
944.725
944.714
944.711
944.71
944.711
944.711
944.711
944.711
944.711
944.711
944.714
944.726
944.768
944.919
945.462
947.747
948.492
945.695
945.023
944.834
944.782
944.767
944.763
944.763
944.763
944.764
944.764
944.764
944.763
944.764
944.768