/*--------------------------------*- C++ -*----------------------------------*\
| =========                 |                                                 |
| \\      /  F ield         | OpenFOAM: The Open Source CFD Toolbox           |
|  \\    /   O peration     | Version:  2.1.0                                 |
|   \\  /    A nd           | Web:      www.OpenFOAM.org                      |
|    \\/     M anipulation  |                                                 |
\*---------------------------------------------------------------------------*/
FoamFile
{
    version     2.0;
    format      ascii;
    class       volScalarField;
    location    "0.21";
    object      T;
}
// * * * * * * * * * * * * * * * * * * * * * * * * * * * * * * * * * * * * * //

dimensions      [0 0 0 1 0 0 0];

internalField   nonuniform List<scalar> 
6400
(
293.15
293.15
293.15
293.15
293.15
293.15
293.15
293.15
293.15
293.15
293.15
293.15
293.15
293.15
293.15
293.15
293.15
293.15
293.15
293.151
293.151
293.151
293.151
293.151
293.151
293.152
293.152
293.152
293.153
293.153
293.154
293.154
293.155
293.156
293.157
293.158
293.159
293.161
293.163
293.165
293.167
293.17
293.173
293.176
293.18
293.185
293.19
293.195
293.202
293.209
293.218
293.227
293.238
293.25
293.263
293.278
293.294
293.313
293.334
293.357
293.383
293.412
293.444
293.48
293.52
293.564
293.613
293.667
293.728
293.794
293.867
293.949
294.038
294.137
294.247
294.368
294.503
294.652
294.818
295.002
295.208
295.438
295.696
295.982
296.301
296.654
297.041
297.458
297.895
298.331
298.72
298.96
298.849
298.062
296.5
296.856
305.53
323.938
339.569
347.216
293.15
293.15
293.15
293.15
293.15
293.15
293.15
293.15
293.15
293.15
293.15
293.15
293.151
293.151
293.151
293.151
293.151
293.151
293.152
293.152
293.152
293.153
293.153
293.154
293.155
293.155
293.156
293.158
293.159
293.16
293.162
293.164
293.167
293.169
293.172
293.176
293.18
293.185
293.191
293.197
293.204
293.212
293.222
293.233
293.245
293.259
293.274
293.292
293.312
293.335
293.36
293.389
293.422
293.458
293.499
293.545
293.596
293.654
293.718
293.79
293.87
293.96
294.061
294.172
294.297
294.436
294.591
294.763
294.954
295.167
295.404
295.667
295.96
296.285
296.646
297.048
297.493
297.989
298.538
299.148
299.824
300.573
301.401
302.314
303.317
304.417
305.616
306.918
308.328
309.856
311.521
313.377
315.537
318.219
321.753
326.418
332.094
338.734
345.097
349.844
293.15
293.15
293.15
293.15
293.15
293.15
293.15
293.15
293.151
293.151
293.151
293.151
293.151
293.152
293.152
293.152
293.153
293.153
293.154
293.154
293.155
293.156
293.157
293.158
293.16
293.162
293.164
293.166
293.169
293.172
293.175
293.18
293.184
293.19
293.196
293.204
293.212
293.222
293.233
293.246
293.261
293.277
293.296
293.318
293.342
293.37
293.402
293.438
293.478
293.524
293.576
293.634
293.699
293.773
293.856
293.949
294.054
294.171
294.302
294.449
294.613
294.796
295
295.228
295.482
295.765
296.079
296.429
296.818
297.251
297.731
298.263
298.854
299.508
300.232
301.032
301.916
302.889
303.959
305.131
306.412
307.805
309.313
310.938
312.679
314.531
316.49
318.548
320.697
322.93
325.242
327.635
330.117
332.711
335.445
338.339
341.489
344.941
348.491
351.799
293.15
293.15
293.15
293.15
293.151
293.151
293.151
293.151
293.151
293.151
293.152
293.152
293.152
293.153
293.153
293.154
293.155
293.156
293.157
293.158
293.16
293.161
293.163
293.166
293.169
293.172
293.176
293.18
293.185
293.191
293.198
293.206
293.215
293.225
293.237
293.251
293.267
293.286
293.306
293.33
293.358
293.389
293.424
293.464
293.51
293.562
293.621
293.688
293.764
293.849
293.945
294.054
294.176
294.313
294.467
294.639
294.832
295.047
295.288
295.556
295.855
296.187
296.555
296.963
297.415
297.914
298.465
299.071
299.737
300.467
301.265
302.136
303.082
304.108
305.215
306.407
307.684
309.047
310.494
312.024
313.633
315.317
317.07
318.886
320.757
322.677
324.637
326.63
328.648
330.685
332.735
334.797
336.867
338.947
341.041
343.151
345.365
347.699
350.122
352.544
293.15
293.151
293.151
293.151
293.151
293.151
293.151
293.152
293.152
293.153
293.153
293.154
293.154
293.155
293.156
293.157
293.159
293.16
293.162
293.165
293.167
293.17
293.174
293.178
293.183
293.189
293.196
293.203
293.212
293.223
293.235
293.249
293.265
293.283
293.304
293.329
293.357
293.389
293.425
293.467
293.514
293.568
293.63
293.699
293.778
293.867
293.968
294.081
294.209
294.352
294.513
294.693
294.894
295.119
295.368
295.646
295.953
296.293
296.668
297.082
297.535
298.033
298.576
299.168
299.811
300.508
301.26
302.071
302.941
303.872
304.866
305.921
307.04
308.221
309.463
310.765
312.125
313.541
315.009
316.527
318.091
319.697
321.341
323.02
324.729
326.465
328.225
330.004
331.8
333.609
335.427
337.25
339.073
340.89
342.691
344.465
346.264
348.081
349.881
351.54
293.151
293.151
293.151
293.151
293.152
293.152
293.152
293.153
293.154
293.154
293.155
293.156
293.157
293.159
293.16
293.162
293.165
293.167
293.17
293.174
293.178
293.184
293.189
293.196
293.204
293.214
293.225
293.237
293.251
293.268
293.287
293.309
293.335
293.364
293.397
293.435
293.478
293.527
293.583
293.646
293.717
293.798
293.889
293.991
294.106
294.235
294.378
294.539
294.717
294.915
295.134
295.377
295.644
295.938
296.26
296.613
296.998
297.417
297.873
298.366
298.898
299.472
300.087
300.747
301.452
302.202
302.999
303.843
304.735
305.675
306.661
307.695
308.774
309.899
311.068
312.279
313.532
314.824
316.155
317.521
318.923
320.358
321.826
323.324
324.852
326.41
327.995
329.607
331.244
332.905
334.585
336.279
337.98
339.675
341.349
342.975
344.559
346.071
347.417
348.363
293.151
293.151
293.152
293.152
293.153
293.153
293.154
293.155
293.155
293.157
293.158
293.159
293.161
293.163
293.166
293.168
293.172
293.176
293.18
293.186
293.192
293.199
293.207
293.217
293.228
293.241
293.256
293.273
293.292
293.314
293.34
293.368
293.401
293.438
293.48
293.528
293.582
293.642
293.71
293.786
293.871
293.965
294.071
294.188
294.317
294.461
294.619
294.793
294.984
295.194
295.423
295.673
295.945
296.24
296.56
296.906
297.279
297.68
298.11
298.571
299.063
299.587
300.145
300.737
301.364
302.027
302.726
303.461
304.233
305.043
305.89
306.774
307.695
308.653
309.649
310.681
311.749
312.853
313.993
315.168
316.379
317.624
318.906
320.223
321.576
322.966
324.395
325.862
327.367
328.91
330.487
332.093
333.718
335.347
336.959
338.516
339.966
341.266
342.259
342.6
293.152
293.152
293.152
293.153
293.154
293.154
293.155
293.156
293.157
293.159
293.16
293.162
293.164
293.167
293.17
293.173
293.177
293.182
293.187
293.193
293.2
293.208
293.218
293.229
293.241
293.255
293.27
293.288
293.309
293.331
293.357
293.386
293.418
293.455
293.495
293.541
293.591
293.647
293.708
293.777
293.852
293.935
294.026
294.125
294.235
294.354
294.484
294.625
294.778
294.945
295.124
295.318
295.528
295.753
295.995
296.254
296.531
296.828
297.145
297.482
297.841
298.223
298.628
299.058
299.512
299.993
300.5
301.035
301.599
302.191
302.813
303.465
304.149
304.863
305.611
306.392
307.207
308.056
308.939
309.858
310.81
311.798
312.824
313.891
315
316.155
317.358
318.612
319.921
321.285
322.705
324.179
325.698
327.251
328.815
330.356
331.735
332.911
333.679
333.628
293.152
293.152
293.153
293.153
293.154
293.155
293.155
293.156
293.158
293.159
293.161
293.162
293.164
293.167
293.17
293.173
293.177
293.181
293.185
293.191
293.197
293.204
293.212
293.221
293.231
293.242
293.255
293.269
293.284
293.302
293.321
293.343
293.367
293.393
293.423
293.455
293.49
293.529
293.572
293.618
293.669
293.725
293.786
293.851
293.923
294.001
294.085
294.176
294.274
294.379
294.493
294.616
294.747
294.888
295.038
295.199
295.371
295.555
295.75
295.958
296.178
296.412
296.66
296.922
297.199
297.491
297.8
298.126
298.468
298.829
299.208
299.606
300.023
300.461
300.919
301.397
301.897
302.419
302.964
303.533
304.129
304.751
305.4
306.076
306.78
307.517
308.295
309.118
309.992
310.922
311.914
312.973
314.103
315.303
316.571
317.896
319.223
320.276
320.944
320.832
293.152
293.152
293.152
293.153
293.153
293.154
293.154
293.155
293.156
293.157
293.158
293.159
293.161
293.163
293.164
293.167
293.169
293.172
293.175
293.179
293.183
293.187
293.192
293.198
293.204
293.211
293.219
293.227
293.237
293.247
293.259
293.272
293.286
293.302
293.319
293.338
293.359
293.382
293.406
293.433
293.463
293.495
293.529
293.567
293.607
293.651
293.699
293.75
293.805
293.864
293.928
293.996
294.068
294.146
294.229
294.317
294.411
294.511
294.617
294.729
294.848
294.973
295.105
295.245
295.391
295.545
295.706
295.874
296.049
296.232
296.421
296.618
296.821
297.031
297.247
297.469
297.697
297.931
298.17
298.415
298.665
298.921
299.185
299.457
299.739
300.027
300.32
300.619
300.93
301.254
301.594
301.953
302.331
302.733
303.161
303.621
304.123
304.672
305.042
305.007
293.151
293.151
293.151
293.152
293.152
293.152
293.153
293.153
293.153
293.154
293.155
293.155
293.156
293.157
293.158
293.159
293.16
293.162
293.164
293.165
293.168
293.17
293.173
293.175
293.179
293.182
293.186
293.191
293.196
293.201
293.207
293.214
293.221
293.229
293.238
293.247
293.258
293.269
293.282
293.295
293.31
293.326
293.343
293.362
293.382
293.403
293.427
293.452
293.478
293.507
293.537
293.57
293.605
293.642
293.681
293.722
293.766
293.812
293.86
293.911
293.964
294.019
294.076
294.136
294.198
294.262
294.327
294.394
294.462
294.531
294.601
294.671
294.741
294.81
294.878
294.945
295.009
295.07
295.128
295.182
295.232
295.278
295.318
295.354
295.385
295.412
295.435
295.453
295.459
295.455
295.44
295.413
295.372
295.315
295.238
295.141
295.02
294.875
294.706
294.522
293.151
293.151
293.151
293.151
293.151
293.151
293.151
293.151
293.152
293.152
293.152
293.152
293.153
293.153
293.154
293.154
293.155
293.155
293.156
293.157
293.158
293.159
293.16
293.161
293.163
293.164
293.166
293.168
293.17
293.172
293.175
293.178
293.181
293.184
293.188
293.192
293.196
293.201
293.206
293.212
293.218
293.224
293.231
293.239
293.247
293.255
293.265
293.274
293.285
293.296
293.307
293.32
293.332
293.346
293.36
293.375
293.39
293.406
293.422
293.439
293.456
293.474
293.492
293.51
293.528
293.545
293.563
293.58
293.596
293.612
293.626
293.64
293.652
293.662
293.67
293.676
293.68
293.681
293.679
293.674
293.667
293.657
293.644
293.629
293.611
293.592
293.572
293.551
293.53
293.508
293.484
293.458
293.431
293.402
293.372
293.342
293.312
293.283
293.257
293.236
293.15
293.15
293.15
293.15
293.15
293.15
293.151
293.151
293.151
293.151
293.151
293.151
293.151
293.151
293.152
293.152
293.152
293.152
293.153
293.153
293.153
293.154
293.154
293.155
293.155
293.156
293.157
293.157
293.158
293.159
293.16
293.161
293.162
293.163
293.164
293.166
293.167
293.169
293.171
293.172
293.174
293.176
293.178
293.181
293.183
293.186
293.188
293.191
293.194
293.197
293.2
293.203
293.207
293.21
293.213
293.217
293.221
293.224
293.228
293.231
293.235
293.238
293.241
293.244
293.247
293.25
293.252
293.254
293.255
293.256
293.257
293.257
293.256
293.255
293.253
293.251
293.248
293.244
293.24
293.235
293.229
293.223
293.217
293.211
293.204
293.198
293.192
293.186
293.181
293.177
293.173
293.17
293.167
293.164
293.161
293.159
293.156
293.155
293.153
293.152
293.15
293.15
293.15
293.15
293.15
293.15
293.15
293.15
293.15
293.15
293.15
293.15
293.151
293.151
293.151
293.151
293.151
293.151
293.151
293.151
293.151
293.152
293.152
293.152
293.152
293.152
293.153
293.153
293.153
293.153
293.154
293.154
293.154
293.155
293.155
293.156
293.156
293.157
293.157
293.158
293.158
293.159
293.159
293.16
293.16
293.161
293.162
293.162
293.163
293.164
293.164
293.165
293.166
293.166
293.167
293.167
293.168
293.168
293.169
293.169
293.169
293.17
293.17
293.17
293.17
293.17
293.17
293.17
293.17
293.169
293.169
293.168
293.167
293.167
293.166
293.165
293.164
293.163
293.162
293.16
293.159
293.158
293.157
293.156
293.155
293.154
293.153
293.152
293.152
293.151
293.151
293.151
293.151
293.15
293.15
293.15
293.15
293.15
293.15
293.15
293.15
293.15
293.15
293.15
293.15
293.15
293.15
293.15
293.15
293.15
293.15
293.15
293.15
293.15
293.15
293.15
293.15
293.15
293.15
293.15
293.151
293.151
293.151
293.151
293.151
293.151
293.151
293.151
293.151
293.151
293.151
293.151
293.152
293.152
293.152
293.152
293.152
293.152
293.152
293.153
293.153
293.153
293.153
293.153
293.153
293.153
293.154
293.154
293.154
293.154
293.154
293.154
293.154
293.154
293.154
293.154
293.154
293.154
293.154
293.154
293.154
293.154
293.154
293.154
293.154
293.154
293.154
293.154
293.154
293.153
293.153
293.153
293.153
293.153
293.152
293.152
293.152
293.152
293.151
293.151
293.151
293.151
293.151
293.151
293.15
293.15
293.15
293.15
293.15
293.15
293.15
293.15
293.15
293.15
293.15
293.15
293.15
293.15
293.15
293.15
293.15
293.15
293.15
293.15
293.15
293.15
293.15
293.15
293.15
293.15
293.15
293.15
293.15
293.15
293.15
293.15
293.15
293.15
293.15
293.15
293.15
293.15
293.15
293.15
293.15
293.15
293.15
293.15
293.15
293.15
293.15
293.151
293.151
293.151
293.151
293.151
293.151
293.151
293.151
293.151
293.151
293.151
293.151
293.151
293.151
293.151
293.151
293.151
293.151
293.151
293.151
293.151
293.151
293.151
293.151
293.151
293.151
293.151
293.151
293.151
293.151
293.151
293.151
293.151
293.151
293.151
293.151
293.151
293.151
293.151
293.151
293.151
293.151
293.15
293.15
293.15
293.15
293.15
293.15
293.15
293.15
293.15
293.15
293.15
293.15
293.15
293.15
293.15
293.15
293.15
293.15
293.15
293.15
293.15
293.15
293.15
293.15
293.15
293.15
293.15
293.15
293.15
293.15
293.15
293.15
293.15
293.15
293.15
293.15
293.15
293.15
293.15
293.15
293.15
293.15
293.15
293.15
293.15
293.15
293.15
293.15
293.15
293.15
293.15
293.15
293.15
293.15
293.15
293.15
293.15
293.15
293.15
293.15
293.15
293.15
293.15
293.15
293.15
293.15
293.15
293.15
293.15
293.15
293.15
293.15
293.15
293.15
293.15
293.15
293.15
293.15
293.15
293.15
293.15
293.15
293.15
293.15
293.15
293.15
293.15
293.15
293.15
293.15
293.15
293.15
293.15
293.15
293.15
293.15
293.15
293.15
293.15
293.15
293.15
293.15
293.15
293.15
293.15
293.15
293.15
293.15
293.15
293.15
293.15
293.15
293.15
293.15
293.15
293.15
293.15
293.15
293.15
293.15
293.15
293.15
293.15
293.15
293.15
293.15
293.15
293.15
293.15
293.15
293.15
293.15
293.15
293.15
293.15
293.15
293.15
293.15
293.15
293.15
293.15
293.15
293.15
293.15
293.15
293.15
293.15
293.15
293.15
293.15
293.15
293.15
293.15
293.15
293.15
293.15
293.15
293.15
293.15
293.15
293.15
293.15
293.15
293.15
293.15
293.15
293.15
293.15
293.15
293.15
293.15
293.15
293.15
293.15
293.15
293.15
293.15
293.15
293.15
293.15
293.15
293.15
293.15
293.15
293.15
293.15
293.15
293.15
293.15
293.15
293.15
293.15
293.15
293.15
293.15
293.15
293.15
293.15
293.15
293.15
293.15
293.15
293.15
293.15
293.15
293.15
293.15
293.15
293.15
293.15
293.15
293.15
293.15
293.15
293.15
293.15
293.15
293.15
293.15
293.15
293.15
293.15
293.15
293.15
293.15
293.15
293.15
293.15
293.15
293.15
293.15
293.15
293.15
293.15
293.15
293.15
293.15
293.15
293.15
293.15
293.15
293.15
293.15
293.15
293.15
293.15
293.15
293.15
293.15
293.15
293.15
293.15
293.15
293.15
293.15
293.15
293.15
293.15
293.15
293.15
293.15
293.15
293.15
293.15
293.15
293.15
293.15
293.15
293.15
293.15
293.15
293.15
293.15
293.15
293.15
293.15
293.15
293.15
293.15
293.15
293.15
293.15
293.15
293.15
293.15
293.15
293.15
293.15
293.15
293.15
293.15
293.15
293.15
293.15
293.15
293.15
293.15
293.15
293.15
293.15
293.15
293.15
293.15
293.15
293.15
293.15
293.15
293.15
293.15
293.15
293.15
293.15
293.15
293.15
293.15
293.15
293.15
293.15
293.15
293.15
293.15
293.15
293.15
293.15
293.15
293.15
293.15
293.15
293.15
293.15
293.15
293.15
293.15
293.15
293.15
293.15
293.15
293.15
293.15
293.15
293.15
293.15
293.15
293.15
293.15
293.15
293.15
293.15
293.15
293.15
293.15
293.15
293.15
293.15
293.15
293.15
293.15
293.15
293.15
293.15
293.15
293.15
293.15
293.15
293.15
293.15
293.15
293.15
293.15
293.15
293.15
293.15
293.15
293.15
293.15
293.15
293.15
293.15
293.15
293.15
293.15
293.15
293.15
293.15
293.15
293.15
293.15
293.15
293.15
293.15
293.15
293.15
293.15
293.15
293.15
293.15
293.15
293.15
293.15
293.15
293.15
293.15
293.15
293.15
293.15
293.15
293.15
293.15
293.15
293.15
293.15
293.15
293.15
293.15
293.15
293.15
293.15
293.15
293.15
293.15
293.15
293.15
293.15
293.15
293.15
293.15
293.15
350.072
360.499
362.157
361.608
360.543
359.419
358.344
357.323
356.322
355.275
354.081
352.601
350.636
347.917
344.104
338.825
331.765
322.74
311.878
299.871
353.265
359.854
360.407
359.42
358.121
356.829
355.605
354.433
353.262
352.013
350.575
348.797
346.481
343.376
339.195
333.667
326.599
317.938
308.005
297.655
355.11
358.415
358.036
356.712
355.226
353.783
352.409
351.07
349.704
348.221
346.507
344.41
341.746
338.3
333.857
328.243
321.352
313.246
304.41
295.88
354.965
355.919
354.868
353.31
351.688
350.114
348.587
347.066
345.482
343.746
341.746
339.345
336.386
332.708
328.171
322.659
316.132
308.781
301.183
294.606
352.681
352.185
350.714
349.008
347.284
345.59
343.911
342.2
340.395
338.418
336.174
333.549
330.428
326.699
322.257
317.029
311.074
304.676
298.425
293.813
348.254
346.993
345.302
343.508
341.703
339.902
338.083
336.211
334.24
332.122
329.761
327.076
323.983
320.394
316.235
311.509
306.339
301.046
296.228
293.4
341.549
339.967
338.194
336.368
334.529
332.684
330.825
328.932
326.964
324.869
322.574
320.029
317.165
313.926
310.29
306.294
302.091
298.007
294.665
293.225
332.095
330.495
328.808
327.102
325.404
323.723
322.042
320.34
318.575
316.703
314.704
312.539
310.162
307.545
304.676
301.612
298.5
295.679
293.735
293.167
319.464
318.196
316.897
315.611
314.341
313.081
311.812
310.525
309.213
307.863
306.45
304.955
303.342
301.598
299.703
297.695
295.734
294.155
293.318
293.155
304.326
303.737
303.126
302.52
301.912
301.304
300.709
300.126
299.55
298.973
298.382
297.764
297.101
296.377
295.577
294.715
293.929
293.395
293.182
293.152
294.329
294.278
294.213
294.135
294.057
293.98
293.907
293.832
293.76
293.685
293.613
293.535
293.459
293.376
293.297
293.236
293.193
293.168
293.152
293.15
293.221
293.22
293.217
293.214
293.209
293.204
293.198
293.193
293.188
293.182
293.177
293.172
293.167
293.162
293.157
293.154
293.152
293.151
293.15
293.15
293.152
293.152
293.152
293.152
293.152
293.152
293.152
293.152
293.152
293.151
293.151
293.151
293.151
293.15
293.15
293.15
293.15
293.15
293.15
293.15
293.15
293.15
293.15
293.15
293.15
293.15
293.15
293.15
293.15
293.15
293.15
293.15
293.15
293.15
293.15
293.15
293.15
293.15
293.15
293.15
293.15
293.15
293.15
293.15
293.15
293.15
293.15
293.15
293.15
293.15
293.15
293.15
293.15
293.15
293.15
293.15
293.15
293.15
293.15
293.15
293.15
293.15
293.15
293.15
293.15
293.15
293.15
293.15
293.15
293.15
293.15
293.15
293.15
293.15
293.15
293.15
293.15
293.15
293.15
293.15
293.15
293.15
293.15
293.15
293.15
293.15
293.15
293.15
293.15
293.15
293.15
293.15
293.15
293.15
293.15
293.15
293.15
293.15
293.15
293.15
293.15
293.15
293.15
293.15
293.15
293.15
293.15
293.15
293.15
293.15
293.15
293.15
293.15
293.15
293.15
293.15
293.15
293.15
293.15
293.15
293.15
293.15
293.15
293.15
293.15
293.15
293.15
293.15
293.15
293.15
293.15
293.15
293.15
293.15
293.15
293.15
293.15
293.15
293.15
293.15
293.15
293.15
293.15
293.15
293.15
293.15
293.15
293.15
293.15
293.15
293.15
293.15
293.15
293.15
293.15
293.15
293.15
293.15
293.15
293.15
393.15
393.15
393.15
393.15
393.15
393.15
393.15
393.15
393.15
393.15
393.15
393.15
393.15
393.15
393.15
393.15
393.15
393.15
393.15
393.15
393.15
393.15
393.15
393.15
393.15
393.15
393.15
393.15
393.15
393.15
393.15
393.15
393.15
393.15
393.15
393.15
393.15
393.15
393.15
393.15
393.15
393.15
393.15
393.15
393.15
393.15
393.15
393.15
393.15
393.15
393.15
393.15
393.15
393.15
393.15
393.15
393.15
393.15
393.15
393.15
393.15
393.15
393.15
393.15
393.15
393.15
393.15
393.15
393.15
393.15
393.15
393.15
393.15
393.15
393.15
393.15
393.15
393.15
393.15
393.15
393.15
393.15
393.15
393.15
393.15
393.15
393.15
393.15
393.15
393.15
393.15
393.15
393.15
393.15
393.15
393.15
393.15
393.15
393.15
393.15
393.15
393.15
393.15
393.15
393.15
393.15
393.15
393.15
393.15
393.15
393.15
393.15
393.15
393.15
393.15
393.15
393.15
393.15
393.15
393.15
393.15
393.15
393.15
393.15
393.15
393.15
393.15
393.15
393.15
393.15
393.15
393.15
393.15
393.15
393.15
393.15
393.15
393.15
393.15
393.15
393.15
393.15
393.15
393.15
393.15
393.15
393.15
393.15
393.15
393.15
393.15
393.15
393.15
393.15
393.15
393.15
393.15
393.15
393.15
393.15
393.15
393.15
393.15
393.15
393.15
393.15
393.15
393.15
393.15
393.15
393.15
393.15
393.15
393.15
393.15
393.15
393.15
393.15
393.15
393.15
393.15
393.15
393.15
393.15
393.15
393.15
393.15
393.15
393.15
393.15
393.15
393.15
393.15
393.15
393.15
393.15
393.15
393.15
393.15
393.15
393.15
393.15
393.15
393.15
393.15
393.15
393.15
393.15
393.15
393.15
393.15
393.15
393.15
393.15
393.15
393.15
393.15
393.15
393.15
393.15
393.15
393.15
393.15
393.15
393.15
393.15
393.15
393.15
393.15
393.15
393.15
393.15
393.15
393.15
393.15
393.15
393.15
393.15
393.15
393.15
393.15
393.15
393.15
393.15
393.15
393.15
393.15
393.15
393.15
393.15
393.15
393.15
393.15
393.15
393.15
393.15
393.15
393.15
393.15
393.15
393.15
393.15
393.15
393.15
393.15
393.15
393.15
393.15
393.15
393.15
393.15
393.15
393.15
393.15
393.15
393.15
393.15
393.15
393.15
393.15
393.15
393.15
393.15
393.15
393.15
393.15
393.15
393.15
393.15
393.15
393.15
393.15
393.15
393.15
393.15
393.15
393.15
393.15
393.15
393.15
393.15
393.15
393.15
393.15
393.15
393.15
393.15
393.15
393.15
393.15
393.15
393.15
393.15
393.15
393.15
393.15
393.15
393.15
393.15
393.15
393.15
393.15
393.15
393.15
393.15
393.15
393.15
393.15
393.15
393.15
393.15
393.15
393.15
393.15
393.15
393.15
393.15
393.15
393.15
393.15
393.15
393.15
393.15
393.15
393.15
393.15
393.15
393.15
393.15
393.15
393.15
393.15
393.15
393.15
393.15
393.15
393.15
393.15
393.15
393.15
393.15
393.15
393.15
393.15
393.15
393.15
393.15
393.15
393.15
393.15
393.15
393.15
393.15
393.15
393.15
393.15
393.15
393.15
393.15
393.15
393.15
393.15
393.15
393.15
393.15
393.15
393.15
393.15
393.15
393.15
393.15
393.15
393.15
393.15
393.15
393.15
393.15
393.15
393.15
393.15
393.15
393.15
393.15
393.15
393.15
393.15
393.15
393.15
393.15
393.15
393.15
393.15
393.15
393.15
393.15
393.15
393.15
393.15
393.15
393.15
393.15
393.15
393.15
393.15
393.15
393.15
393.15
393.15
393.15
393.15
393.15
393.15
393.15
393.15
393.15
393.15
393.15
393.15
393.15
393.15
393.15
393.15
393.15
393.15
393.15
393.15
393.15
393.15
393.15
393.15
393.15
393.15
393.15
393.15
393.15
393.15
393.15
393.15
393.15
393.15
393.15
393.15
393.15
393.15
393.15
393.15
393.15
393.15
393.15
393.15
393.15
393.15
393.15
393.15
393.15
393.15
393.15
393.15
393.15
393.15
393.15
393.15
393.15
393.15
393.15
393.15
393.15
393.15
393.15
393.15
393.15
393.15
393.15
393.15
393.15
393.15
393.15
393.15
393.15
393.15
393.15
393.15
393.15
393.15
393.15
393.15
393.15
393.15
393.15
393.15
393.15
393.15
393.15
393.15
393.15
393.15
393.15
393.15
393.15
393.15
393.15
393.15
393.15
393.15
393.15
393.15
393.15
393.15
393.15
393.15
393.15
393.15
393.15
393.15
393.15
393.15
393.15
393.15
393.15
393.15
393.15
393.15
393.15
393.15
393.15
393.15
393.15
393.15
393.15
393.15
393.15
393.15
393.15
393.15
393.15
393.15
393.15
393.15
393.15
393.15
393.15
393.15
393.15
393.15
393.15
393.15
393.15
393.15
393.15
393.15
393.15
393.15
393.15
393.15
393.15
393.15
393.15
393.15
393.15
393.15
393.15
393.15
393.15
393.15
393.15
393.15
393.15
393.15
393.15
393.15
393.15
393.15
393.15
393.15
393.15
393.15
393.15
393.15
393.15
393.15
393.15
393.15
393.15
393.15
393.15
393.15
393.15
393.15
393.15
393.15
393.15
393.15
393.15
393.15
393.15
393.15
393.15
393.15
393.15
393.15
393.15
393.15
393.15
393.15
393.15
393.15
393.15
393.15
393.15
393.15
393.15
393.15
393.15
393.15
393.15
393.15
393.15
393.15
393.15
393.15
393.15
393.15
393.15
393.15
393.15
393.15
393.15
393.15
393.15
393.15
393.15
393.15
393.15
393.15
393.15
393.15
393.15
393.15
393.15
393.15
393.15
393.15
393.15
393.15
393.15
393.15
393.15
393.15
393.15
393.15
393.15
393.15
393.15
393.15
393.15
393.15
393.15
393.15
393.15
393.15
393.15
393.15
393.15
393.15
393.15
393.15
393.15
393.15
393.15
393.15
393.15
393.15
393.15
393.15
393.15
393.15
393.15
393.15
393.15
393.15
393.15
393.15
393.15
393.15
393.15
393.15
393.15
393.15
393.15
393.15
393.15
393.15
393.15
393.15
393.15
393.15
393.15
393.15
393.15
393.15
393.15
393.15
393.15
393.15
393.15
393.15
393.15
393.15
393.15
393.15
393.15
393.15
393.15
393.15
393.15
393.15
393.15
393.15
393.15
393.15
393.15
393.15
393.15
393.15
393.15
393.15
393.15
393.15
393.15
393.15
393.15
393.15
393.15
393.15
393.15
393.15
393.15
393.15
393.15
393.15
393.15
393.15
393.15
393.15
393.15
393.15
393.15
393.15
393.15
393.15
393.15
393.15
393.15
393.15
393.15
393.15
393.15
393.15
393.15
393.15
393.15
393.15
393.15
393.15
393.15
393.15
393.15
393.15
393.15
393.15
393.15
393.15
393.15
393.15
393.15
393.15
393.15
393.15
393.15
393.15
393.15
393.15
393.15
393.15
393.15
393.15
393.15
393.15
393.15
393.15
393.15
393.15
393.15
393.15
393.15
393.15
393.15
393.15
393.15
393.15
393.15
393.15
393.15
393.15
393.15
393.15
393.15
393.15
393.15
393.15
393.15
393.15
393.15
393.15
393.15
393.15
393.15
393.15
393.15
393.15
393.15
393.15
393.15
393.15
393.15
393.15
393.15
393.15
393.15
393.15
393.15
393.15
393.15
393.15
393.15
393.15
393.15
393.15
393.15
393.15
393.15
393.15
393.15
393.15
393.15
393.15
393.15
393.15
393.15
393.15
393.15
393.15
393.15
393.15
393.15
393.15
393.15
393.15
393.15
393.15
393.15
393.15
393.15
393.15
393.15
393.15
393.15
393.15
393.15
393.15
393.15
393.15
393.15
393.15
393.15
393.15
393.15
393.15
393.15
393.15
393.15
393.15
393.15
393.15
393.15
393.15
393.15
393.15
393.15
393.15
393.15
393.15
393.15
393.15
393.15
393.15
393.15
393.15
393.15
393.15
393.15
393.15
393.15
393.15
393.15
393.15
393.15
393.15
393.15
393.15
393.15
393.15
393.15
393.15
393.15
393.15
393.15
393.15
393.15
393.15
393.15
393.15
393.15
393.15
393.15
393.15
393.15
393.15
393.15
393.15
393.15
393.15
393.15
393.15
393.15
393.15
393.15
393.15
393.15
393.15
393.15
393.15
393.15
393.15
393.15
393.15
393.15
393.15
393.15
393.15
393.15
393.15
393.15
393.15
393.15
393.15
393.15
393.15
393.15
393.15
393.15
393.15
393.15
393.15
393.15
393.15
393.15
393.15
393.15
393.15
393.15
393.15
393.15
393.15
393.15
393.15
393.15
393.15
393.15
393.15
393.15
393.15
393.15
393.15
393.15
393.15
393.15
393.15
393.15
393.15
393.15
393.15
393.15
393.15
393.15
393.15
393.15
393.15
393.15
393.15
393.15
393.15
393.15
393.15
393.15
393.15
393.15
393.15
393.15
393.15
393.15
393.15
393.15
393.15
393.15
393.15
393.15
393.15
393.15
393.15
393.15
393.15
393.15
393.15
393.15
393.15
393.15
393.15
393.15
393.15
393.15
393.15
393.15
393.15
393.15
393.15
393.15
393.15
393.15
393.15
393.149
393.15
393.15
393.15
393.15
393.15
393.15
393.15
393.15
393.15
393.15
393.15
393.15
393.15
393.15
393.15
393.15
393.15
393.15
393.149
393.149
393.15
393.15
393.15
393.15
393.15
393.15
393.15
393.15
393.15
393.15
393.15
393.15
393.15
393.15
393.15
393.15
393.15
393.15
393.149
393.148
393.15
393.15
393.15
393.15
393.15
393.15
393.15
393.15
393.15
393.15
393.15
393.15
393.15
393.15
393.15
393.15
393.15
393.15
393.148
393.146
393.149
393.15
393.15
393.15
393.15
393.15
393.15
393.15
393.15
393.15
393.15
393.15
393.15
393.15
393.15
393.15
393.15
393.149
393.146
393.143
393.149
393.15
393.15
393.15
393.15
393.15
393.15
393.15
393.15
393.15
393.15
393.15
393.15
393.15
393.15
393.15
393.15
393.149
393.143
393.139
393.148
393.149
393.15
393.15
393.15
393.15
393.15
393.15
393.15
393.15
393.15
393.15
393.15
393.15
393.15
393.15
393.149
393.148
393.139
393.132
393.146
393.149
393.149
393.149
393.149
393.149
393.149
393.149
393.149
393.149
393.149
393.149
393.149
393.149
393.149
393.149
393.149
393.146
393.132
393.12
393.144
393.148
393.149
393.149
393.149
393.149
393.149
393.149
393.149
393.149
393.149
393.149
393.149
393.149
393.149
393.149
393.148
393.144
393.121
393.104
393.141
393.147
393.148
393.149
393.149
393.149
393.149
393.149
393.149
393.149
393.149
393.149
393.149
393.149
393.149
393.148
393.147
393.141
393.104
393.078
393.135
393.145
393.147
393.148
393.148
393.148
393.148
393.148
393.148
393.148
393.148
393.148
393.148
393.148
393.148
393.147
393.145
393.135
393.078
393.041
393.127
393.143
393.146
393.147
393.147
393.147
393.147
393.147
393.147
393.147
393.147
393.147
393.147
393.147
393.147
393.146
393.143
393.127
393.041
392.987
393.115
393.139
393.144
393.145
393.145
393.145
393.145
393.145
393.145
393.145
393.145
393.145
393.145
393.145
393.145
393.144
393.139
393.115
392.987
392.911
393.098
393.133
393.141
393.143
393.143
393.143
393.143
393.143
393.143
393.143
393.143
393.143
393.143
393.143
393.143
393.141
393.133
393.098
392.911
392.805
393.073
393.124
393.136
393.139
393.14
393.14
393.14
393.14
393.14
393.14
393.14
393.14
393.14
393.14
393.139
393.136
393.124
393.073
392.805
392.66
393.038
393.112
393.13
393.134
393.135
393.135
393.135
393.135
393.135
393.135
393.135
393.135
393.135
393.135
393.134
393.13
393.112
393.038
392.66
392.465
392.991
393.095
393.121
393.127
393.128
393.129
393.128
393.128
393.128
393.128
393.128
393.128
393.129
393.128
393.127
393.121
393.095
392.99
392.465
392.205
392.925
393.072
393.108
393.117
393.119
393.119
393.119
393.119
393.119
393.119
393.119
393.119
393.119
393.119
393.117
393.108
393.072
392.925
392.205
391.867
392.838
393.039
393.09
393.103
393.106
393.107
393.106
393.106
393.106
393.106
393.106
393.106
393.107
393.106
393.103
393.09
393.039
392.837
391.867
391.432
392.722
392.996
393.065
393.083
393.088
393.089
393.089
393.088
393.088
393.088
393.088
393.089
393.089
393.088
393.083
393.065
392.995
392.721
391.431
390.882
392.571
392.937
393.032
393.057
393.063
393.065
393.065
393.064
393.064
393.064
393.064
393.064
393.065
393.063
393.056
393.031
392.936
392.569
390.879
390.195
392.376
392.86
392.987
393.021
393.03
393.032
393.032
393.031
393.031
393.031
393.031
393.032
393.032
393.029
393.02
392.986
392.858
392.372
390.189
389.35
392.13
392.759
392.927
392.972
392.985
392.988
392.988
392.987
392.987
392.987
392.987
392.988
392.988
392.984
392.972
392.926
392.756
392.123