/*--------------------------------*- C++ -*----------------------------------*\
| =========                 |                                                 |
| \\      /  F ield         | OpenFOAM: The Open Source CFD Toolbox           |
|  \\    /   O peration     | Version:  2.1.0                                 |
|   \\  /    A nd           | Web:      www.OpenFOAM.org                      |
|    \\/     M anipulation  |                                                 |
\*---------------------------------------------------------------------------*/
FoamFile
{
    version     2.0;
    format      ascii;
    class       volVectorField;
    location    "0.21";
    object      U;
}
// * * * * * * * * * * * * * * * * * * * * * * * * * * * * * * * * * * * * * //

dimensions      [0 1 -1 0 0 0 0];

internalField   nonuniform List<vector> 
6400
(
(-1.22603 -3.98315e-05 0)
(-1.22488 -0.000467934 0)
(-1.22255 -0.000743874 0)
(-1.21934 -0.0008828 0)
(-1.2157 -0.000963629 0)
(-1.21178 -0.00101705 0)
(-1.20769 -0.00105543 0)
(-1.20345 -0.00108551 0)
(-1.19911 -0.00111109 0)
(-1.19467 -0.00113426 0)
(-1.19014 -0.00115632 0)
(-1.18553 -0.00117783 0)
(-1.18083 -0.00119928 0)
(-1.17604 -0.00122072 0)
(-1.17117 -0.00124243 0)
(-1.16622 -0.00126429 0)
(-1.16117 -0.00128649 0)
(-1.15604 -0.00130887 0)
(-1.15082 -0.00133169 0)
(-1.14551 -0.00135479 0)
(-1.14011 -0.0013778 0)
(-1.13462 -0.00140142 0)
(-1.12903 -0.00142659 0)
(-1.12334 -0.00145249 0)
(-1.11754 -0.00147917 0)
(-1.11164 -0.00150668 0)
(-1.10562 -0.00153524 0)
(-1.0995 -0.00156474 0)
(-1.09325 -0.00159535 0)
(-1.08688 -0.00162702 0)
(-1.08038 -0.00165987 0)
(-1.07376 -0.00169384 0)
(-1.06699 -0.00172915 0)
(-1.06008 -0.00176576 0)
(-1.05303 -0.00180382 0)
(-1.04582 -0.00184347 0)
(-1.03845 -0.00188489 0)
(-1.03091 -0.00192819 0)
(-1.0232 -0.00197352 0)
(-1.01531 -0.00202108 0)
(-1.00722 -0.00207101 0)
(-0.998935 -0.0021233 0)
(-0.990435 -0.00217798 0)
(-0.981715 -0.00223512 0)
(-0.972765 -0.0022947 0)
(-0.963576 -0.00235655 0)
(-0.954138 -0.00242067 0)
(-0.944442 -0.00248732 0)
(-0.934484 -0.00255339 0)
(-0.924261 -0.00262206 0)
(-0.913753 -0.00269727 0)
(-0.902943 -0.00277457 0)
(-0.891836 -0.00285016 0)
(-0.880436 -0.00292187 0)
(-0.868758 -0.00299158 0)
(-0.856805 -0.00306109 0)
(-0.844577 -0.00313141 0)
(-0.832069 -0.00320279 0)
(-0.819278 -0.00327531 0)
(-0.8062 -0.00334868 0)
(-0.792831 -0.00342324 0)
(-0.779166 -0.00349922 0)
(-0.765199 -0.00357638 0)
(-0.750926 -0.00365499 0)
(-0.736342 -0.00373527 0)
(-0.721437 -0.00381763 0)
(-0.706205 -0.0039021 0)
(-0.690637 -0.00398852 0)
(-0.674726 -0.00407695 0)
(-0.658464 -0.00416757 0)
(-0.641841 -0.00426076 0)
(-0.624847 -0.00435706 0)
(-0.607467 -0.00445716 0)
(-0.589686 -0.00456212 0)
(-0.571482 -0.00467331 0)
(-0.552825 -0.00479282 0)
(-0.533679 -0.00492346 0)
(-0.513991 -0.0050691 0)
(-0.493693 -0.00523511 0)
(-0.472689 -0.00542871 0)
(-0.450855 -0.00565832 0)
(-0.428032 -0.00593307 0)
(-0.404021 -0.00626303 0)
(-0.378586 -0.00665824 0)
(-0.351452 -0.00712719 0)
(-0.322319 -0.00767525 0)
(-0.290878 -0.00830054 0)
(-0.256858 -0.00898659 0)
(-0.220106 -0.00968848 0)
(-0.180754 -0.0103067 0)
(-0.139524 -0.0106409 0)
(-0.0983327 -0.0102821 0)
(-0.0611289 -0.00860704 0)
(-0.0335792 -0.00536907 0)
(-0.0198604 -0.00158325 0)
(-0.0227463 0.00304405 0)
(-0.0507925 0.0110996 0)
(-0.129476 0.0283398 0)
(-0.324297 0.0686916 0)
(-0.924304 0.192507 0)
(-1.48247 -0.000293334 0)
(-1.47948 -0.00154222 0)
(-1.47734 -0.00226024 0)
(-1.47399 -0.00263833 0)
(-1.47032 -0.00286392 0)
(-1.46641 -0.00301383 0)
(-1.46235 -0.00312172 0)
(-1.45818 -0.00320628 0)
(-1.45392 -0.00327826 0)
(-1.44957 -0.00334345 0)
(-1.44515 -0.00340562 0)
(-1.44065 -0.00346626 0)
(-1.43608 -0.00352686 0)
(-1.43144 -0.00358752 0)
(-1.42673 -0.00364911 0)
(-1.42194 -0.0037112 0)
(-1.41707 -0.0037743 0)
(-1.41213 -0.00383793 0)
(-1.40711 -0.00390261 0)
(-1.40201 -0.0039682 0)
(-1.39683 -0.00403288 0)
(-1.39158 -0.00409841 0)
(-1.38625 -0.0041681 0)
(-1.38084 -0.00423926 0)
(-1.37535 -0.00431216 0)
(-1.36978 -0.00438707 0)
(-1.36412 -0.00446458 0)
(-1.35839 -0.0045445 0)
(-1.35256 -0.00462714 0)
(-1.34664 -0.00471245 0)
(-1.34063 -0.00480068 0)
(-1.33453 -0.00489177 0)
(-1.32833 -0.00498625 0)
(-1.32203 -0.00508413 0)
(-1.31562 -0.00518564 0)
(-1.30911 -0.00529113 0)
(-1.30249 -0.005401 0)
(-1.29575 -0.00551547 0)
(-1.2889 -0.00563492 0)
(-1.28193 -0.00575973 0)
(-1.27483 -0.00589043 0)
(-1.2676 -0.00602714 0)
(-1.26024 -0.00617007 0)
(-1.25273 -0.00631947 0)
(-1.24508 -0.00647542 0)
(-1.23727 -0.00663768 0)
(-1.22929 -0.00680639 0)
(-1.22115 -0.0069823 0)
(-1.21282 -0.00715879 0)
(-1.20432 -0.00733771 0)
(-1.19566 -0.00752339 0)
(-1.18686 -0.00771019 0)
(-1.17793 -0.00789509 0)
(-1.16885 -0.0080742 0)
(-1.15962 -0.00824947 0)
(-1.15025 -0.00842392 0)
(-1.14074 -0.00859965 0)
(-1.13108 -0.00877725 0)
(-1.12128 -0.00895686 0)
(-1.11134 -0.0091378 0)
(-1.10127 -0.00932039 0)
(-1.09107 -0.0095047 0)
(-1.08074 -0.00969012 0)
(-1.07029 -0.00987717 0)
(-1.05972 -0.0100664 0)
(-1.04904 -0.0102587 0)
(-1.03826 -0.0104541 0)
(-1.02738 -0.0106527 0)
(-1.0164 -0.0108548 0)
(-1.00532 -0.0110612 0)
(-0.994156 -0.0112735 0)
(-0.98289 -0.0114935 0)
(-0.971522 -0.0117235 0)
(-0.960039 -0.0119671 0)
(-0.948427 -0.0122287 0)
(-0.93666 -0.0125142 0)
(-0.924707 -0.0128317 0)
(-0.912527 -0.0131916 0)
(-0.900064 -0.0136082 0)
(-0.887251 -0.0140999 0)
(-0.873999 -0.0146882 0)
(-0.860202 -0.0153958 0)
(-0.845737 -0.0162483 0)
(-0.830453 -0.0172713 0)
(-0.814184 -0.0184864 0)
(-0.796748 -0.0199059 0)
(-0.777967 -0.0215226 0)
(-0.757696 -0.023291 0)
(-0.735873 -0.0250942 0)
(-0.712591 -0.0266846 0)
(-0.688212 -0.0275825 0)
(-0.663448 -0.0268889 0)
(-0.639465 -0.0232474 0)
(-0.618898 -0.0155492 0)
(-0.609033 -0.00417444 0)
(-0.619481 0.0115342 0)
(-0.663224 0.0377793 0)
(-0.761284 0.0883992 0)
(-0.95587 0.19686 0)
(-1.42807 0.509756 0)
(-1.62807 -0.000806752 0)
(-1.62427 -0.0026844 0)
(-1.62291 -0.00370996 0)
(-1.62009 -0.00427514 0)
(-1.61697 -0.00461897 0)
(-1.61369 -0.00484792 0)
(-1.61027 -0.00501168 0)
(-1.60678 -0.00513976 0)
(-1.60321 -0.005248 0)
(-1.5996 -0.00534597 0)
(-1.59592 -0.00543896 0)
(-1.5922 -0.00552989 0)
(-1.58842 -0.00562069 0)
(-1.58461 -0.00571196 0)
(-1.58073 -0.00580481 0)
(-1.57681 -0.00589895 0)
(-1.57282 -0.00599489 0)
(-1.56879 -0.00609237 0)
(-1.56469 -0.00619174 0)
(-1.56054 -0.00629335 0)
(-1.5563 -0.00639422 0)
(-1.55202 -0.00649458 0)
(-1.54767 -0.0065977 0)
(-1.54327 -0.00670127 0)
(-1.53881 -0.00680632 0)
(-1.53432 -0.00691379 0)
(-1.52976 -0.00702452 0)
(-1.52517 -0.00713827 0)
(-1.52052 -0.0072553 0)
(-1.51582 -0.0073756 0)
(-1.51108 -0.00749941 0)
(-1.50628 -0.00762661 0)
(-1.50144 -0.00775789 0)
(-1.49655 -0.00789341 0)
(-1.49161 -0.00803317 0)
(-1.48663 -0.00817761 0)
(-1.48159 -0.00832715 0)
(-1.47651 -0.00848198 0)
(-1.47139 -0.00864248 0)
(-1.46623 -0.0088089 0)
(-1.46102 -0.00898196 0)
(-1.45578 -0.00916189 0)
(-1.4505 -0.00934898 0)
(-1.44518 -0.00954353 0)
(-1.43983 -0.00974568 0)
(-1.43446 -0.00995517 0)
(-1.42906 -0.010172 0)
(-1.42365 -0.010396 0)
(-1.4182 -0.0106225 0)
(-1.41278 -0.0108492 0)
(-1.40734 -0.011073 0)
(-1.4019 -0.0112922 0)
(-1.39649 -0.0115107 0)
(-1.39108 -0.0117267 0)
(-1.38568 -0.011939 0)
(-1.3803 -0.0121485 0)
(-1.37494 -0.0123569 0)
(-1.36962 -0.0125648 0)
(-1.36433 -0.0127718 0)
(-1.3591 -0.0129768 0)
(-1.35395 -0.0131793 0)
(-1.34887 -0.0133786 0)
(-1.3439 -0.0135733 0)
(-1.33906 -0.0137635 0)
(-1.33436 -0.0139498 0)
(-1.32983 -0.0141324 0)
(-1.3255 -0.0143112 0)
(-1.32139 -0.0144862 0)
(-1.31753 -0.0146582 0)
(-1.31395 -0.0148282 0)
(-1.31068 -0.0149987 0)
(-1.30773 -0.0151726 0)
(-1.30515 -0.0153542 0)
(-1.30294 -0.0155494 0)
(-1.30114 -0.0157657 0)
(-1.29973 -0.016013 0)
(-1.29874 -0.0163039 0)
(-1.29815 -0.0166547 0)
(-1.29795 -0.0170862 0)
(-1.29808 -0.0176256 0)
(-1.29851 -0.0183034 0)
(-1.29917 -0.0191512 0)
(-1.29995 -0.0202044 0)
(-1.30076 -0.0214991 0)
(-1.30147 -0.0230648 0)
(-1.30194 -0.0249156 0)
(-1.30205 -0.0270358 0)
(-1.30169 -0.0293554 0)
(-1.30083 -0.0317084 0)
(-1.29953 -0.0337642 0)
(-1.29799 -0.0349186 0)
(-1.29656 -0.0341507 0)
(-1.29571 -0.0299422 0)
(-1.29654 -0.0203418 0)
(-1.30282 -0.00373316 0)
(-1.31766 0.0219042 0)
(-1.35281 0.0641848 0)
(-1.42371 0.14188 0)
(-1.56064 0.298781 0)
(-1.82131 0.695933 0)
(-1.76084 -0.00140268 0)
(-1.75682 -0.00359748 0)
(-1.75642 -0.00483912 0)
(-1.75447 -0.00554839 0)
(-1.7523 -0.00598379 0)
(-1.75002 -0.00627162 0)
(-1.74764 -0.00647432 0)
(-1.74523 -0.00663077 0)
(-1.74276 -0.0067605 0)
(-1.7403 -0.0068768 0)
(-1.7378 -0.00698574 0)
(-1.7353 -0.00709194 0)
(-1.73277 -0.00719729 0)
(-1.73026 -0.00730314 0)
(-1.72772 -0.00741058 0)
(-1.72519 -0.00751983 0)
(-1.72263 -0.007631 0)
(-1.72009 -0.00774444 0)
(-1.71752 -0.00786011 0)
(-1.71497 -0.00797787 0)
(-1.71239 -0.00809641 0)
(-1.70985 -0.00821475 0)
(-1.70728 -0.00833239 0)
(-1.70472 -0.00844874 0)
(-1.70215 -0.00856527 0)
(-1.69959 -0.0086838 0)
(-1.69703 -0.00880541 0)
(-1.69449 -0.00892964 0)
(-1.69195 -0.00905658 0)
(-1.68943 -0.00918619 0)
(-1.68692 -0.00931859 0)
(-1.68443 -0.00945345 0)
(-1.68196 -0.00959128 0)
(-1.67953 -0.00973229 0)
(-1.67712 -0.00987644 0)
(-1.67475 -0.010024 0)
(-1.67242 -0.0101752 0)
(-1.67014 -0.0103301 0)
(-1.66791 -0.010489 0)
(-1.66574 -0.0106517 0)
(-1.66363 -0.0108187 0)
(-1.66161 -0.0109901 0)
(-1.65966 -0.0111657 0)
(-1.65782 -0.0113455 0)
(-1.65607 -0.0115295 0)
(-1.65445 -0.0117169 0)
(-1.65296 -0.0119074 0)
(-1.65162 -0.0120986 0)
(-1.65043 -0.0122894 0)
(-1.64943 -0.0124815 0)
(-1.64857 -0.0126698 0)
(-1.64788 -0.0128512 0)
(-1.64735 -0.0130294 0)
(-1.64699 -0.0132041 0)
(-1.64681 -0.0133727 0)
(-1.64683 -0.0135338 0)
(-1.64706 -0.0136883 0)
(-1.64752 -0.0138369 0)
(-1.64822 -0.013978 0)
(-1.64919 -0.0141099 0)
(-1.65044 -0.0142316 0)
(-1.65199 -0.0143417 0)
(-1.65386 -0.0144382 0)
(-1.65609 -0.0145203 0)
(-1.65868 -0.0145887 0)
(-1.66166 -0.0146439 0)
(-1.66506 -0.0146852 0)
(-1.66889 -0.014713 0)
(-1.67317 -0.0147283 0)
(-1.67792 -0.014733 0)
(-1.68315 -0.0147309 0)
(-1.68887 -0.0147267 0)
(-1.69507 -0.0147272 0)
(-1.70176 -0.014741 0)
(-1.70891 -0.0147798 0)
(-1.7165 -0.0148574 0)
(-1.7245 -0.0149918 0)
(-1.73286 -0.0152045 0)
(-1.74152 -0.0155221 0)
(-1.75041 -0.0159787 0)
(-1.75945 -0.0166123 0)
(-1.76854 -0.0174599 0)
(-1.77759 -0.0185615 0)
(-1.7865 -0.0199583 0)
(-1.79518 -0.0216813 0)
(-1.80353 -0.0237402 0)
(-1.8115 -0.0261078 0)
(-1.81905 -0.0286923 0)
(-1.82621 -0.0312943 0)
(-1.83303 -0.033538 0)
(-1.83961 -0.0347742 0)
(-1.84604 -0.0339657 0)
(-1.85226 -0.0296006 0)
(-1.85835 -0.0194095 0)
(-1.86672 -0.00142811 0)
(-1.87527 0.0295618 0)
(-1.89511 0.0808187 0)
(-1.93249 0.174495 0)
(-1.99705 0.358476 0)
(-2.09207 0.750742 0)
(-1.89693 -0.00190483 0)
(-1.89333 -0.00414845 0)
(-1.89403 -0.00547579 0)
(-1.8933 -0.00626201 0)
(-1.89254 -0.00674891 0)
(-1.89172 -0.00706536 0)
(-1.89089 -0.00728341 0)
(-1.89007 -0.00744622 0)
(-1.88926 -0.00757724 0)
(-1.88849 -0.00769114 0)
(-1.88773 -0.00779552 0)
(-1.88702 -0.00789528 0)
(-1.88634 -0.00799293 0)
(-1.88571 -0.0080897 0)
(-1.88512 -0.00818686 0)
(-1.8846 -0.00828462 0)
(-1.88411 -0.00838302 0)
(-1.8837 -0.00848227 0)
(-1.88335 -0.008582 0)
(-1.88308 -0.00868097 0)
(-1.88287 -0.00878008 0)
(-1.88276 -0.00888093 0)
(-1.88271 -0.00898189 0)
(-1.88274 -0.00908096 0)
(-1.88283 -0.00917822 0)
(-1.883 -0.00927613 0)
(-1.88325 -0.00937626 0)
(-1.88359 -0.00947759 0)
(-1.88401 -0.00957996 0)
(-1.88452 -0.0096832 0)
(-1.88513 -0.00978726 0)
(-1.88584 -0.00989181 0)
(-1.88665 -0.00999702 0)
(-1.88758 -0.0101028 0)
(-1.88862 -0.0102095 0)
(-1.88979 -0.0103171 0)
(-1.89109 -0.0104255 0)
(-1.89252 -0.0105347 0)
(-1.8941 -0.0106451 0)
(-1.89583 -0.0107561 0)
(-1.89771 -0.0108679 0)
(-1.89975 -0.0109804 0)
(-1.90197 -0.0110933 0)
(-1.90436 -0.0112065 0)
(-1.90694 -0.0113195 0)
(-1.9097 -0.0114317 0)
(-1.91267 -0.0115425 0)
(-1.91583 -0.0116496 0)
(-1.9192 -0.011753 0)
(-1.92278 -0.0118571 0)
(-1.92657 -0.011959 0)
(-1.93059 -0.0120541 0)
(-1.93484 -0.0121429 0)
(-1.93932 -0.0122241 0)
(-1.94404 -0.0122968 0)
(-1.949 -0.0123577 0)
(-1.95422 -0.0124075 0)
(-1.9597 -0.0124485 0)
(-1.96544 -0.0124781 0)
(-1.97145 -0.0124945 0)
(-1.97772 -0.0124969 0)
(-1.98426 -0.0124839 0)
(-1.99107 -0.0124533 0)
(-1.99815 -0.0124039 0)
(-2.00551 -0.0123372 0)
(-2.01313 -0.0122546 0)
(-2.02103 -0.0121559 0)
(-2.02918 -0.0120412 0)
(-2.0376 -0.0119125 0)
(-2.04628 -0.0117727 0)
(-2.05521 -0.0116264 0)
(-2.06438 -0.0114802 0)
(-2.07379 -0.0113426 0)
(-2.08343 -0.0112246 0)
(-2.09329 -0.0111413 0)
(-2.10334 -0.0111091 0)
(-2.11357 -0.0111493 0)
(-2.12395 -0.0112876 0)
(-2.13446 -0.0115547 0)
(-2.14504 -0.0119893 0)
(-2.15566 -0.0126347 0)
(-2.16627 -0.0135291 0)
(-2.1768 -0.0147107 0)
(-2.18722 -0.016221 0)
(-2.19749 -0.0180878 0)
(-2.20757 -0.0203132 0)
(-2.21743 -0.0228602 0)
(-2.22708 -0.0256229 0)
(-2.2365 -0.0283865 0)
(-2.2457 -0.030767 0)
(-2.25461 -0.0321294 0)
(-2.26305 -0.031495 0)
(-2.27058 -0.0274696 0)
(-2.27635 -0.017881 0)
(-2.28274 -0.000549121 0)
(-2.2832 0.0319315 0)
(-2.28583 0.0861965 0)
(-2.28955 0.185119 0)
(-2.28531 0.372808 0)
(-2.26508 0.714934 0)
(-2.0439 -0.00215771 0)
(-2.04136 -0.00420451 0)
(-2.04326 -0.00545874 0)
(-2.04411 -0.00622266 0)
(-2.04511 -0.00669683 0)
(-2.04619 -0.00699691 0)
(-2.04735 -0.00719615 0)
(-2.04858 -0.00733623 0)
(-2.04988 -0.00744271 0)
(-2.05128 -0.00752941 0)
(-2.05274 -0.00760527 0)
(-2.05429 -0.0076745 0)
(-2.05592 -0.00774024 0)
(-2.05764 -0.00780342 0)
(-2.05945 -0.0078653 0)
(-2.06136 -0.0079258 0)
(-2.06335 -0.00798536 0)
(-2.06546 -0.00804365 0)
(-2.06766 -0.00810031 0)
(-2.06997 -0.00815428 0)
(-2.07238 -0.00820697 0)
(-2.0749 -0.00826081 0)
(-2.07753 -0.00831574 0)
(-2.08028 -0.00836885 0)
(-2.08314 -0.00841732 0)
(-2.08614 -0.00846465 0)
(-2.08925 -0.00851355 0)
(-2.0925 -0.00856202 0)
(-2.09588 -0.00861001 0)
(-2.09939 -0.00865725 0)
(-2.10303 -0.00870374 0)
(-2.10681 -0.00874934 0)
(-2.11073 -0.00879425 0)
(-2.11479 -0.00883814 0)
(-2.11898 -0.00888155 0)
(-2.12332 -0.00892465 0)
(-2.1278 -0.00896738 0)
(-2.13242 -0.00900984 0)
(-2.13717 -0.00905235 0)
(-2.14207 -0.00909458 0)
(-2.1471 -0.00913678 0)
(-2.15227 -0.00917897 0)
(-2.15756 -0.00922097 0)
(-2.163 -0.00926276 0)
(-2.16855 -0.00930416 0)
(-2.17424 -0.00934469 0)
(-2.18005 -0.00938387 0)
(-2.18597 -0.00942053 0)
(-2.19202 -0.00945495 0)
(-2.19817 -0.00948886 0)
(-2.20444 -0.00952044 0)
(-2.21082 -0.00954657 0)
(-2.21731 -0.00956683 0)
(-2.2239 -0.00957965 0)
(-2.23059 -0.00958498 0)
(-2.23737 -0.0095788 0)
(-2.24427 -0.00955994 0)
(-2.25126 -0.00953048 0)
(-2.25838 -0.00948919 0)
(-2.26561 -0.00943522 0)
(-2.27296 -0.00936802 0)
(-2.28043 -0.00928641 0)
(-2.28802 -0.00918815 0)
(-2.29573 -0.00907083 0)
(-2.30357 -0.00893637 0)
(-2.31155 -0.00878822 0)
(-2.31965 -0.00862504 0)
(-2.32789 -0.00844676 0)
(-2.33626 -0.00825531 0)
(-2.34478 -0.00805394 0)
(-2.35343 -0.00784729 0)
(-2.36223 -0.00764239 0)
(-2.37117 -0.00744865 0)
(-2.38025 -0.00727692 0)
(-2.38947 -0.00714579 0)
(-2.39881 -0.00707181 0)
(-2.40827 -0.00707735 0)
(-2.41784 -0.00719028 0)
(-2.4275 -0.00744274 0)
(-2.43723 -0.00787415 0)
(-2.44703 -0.00853386 0)
(-2.45687 -0.00945895 0)
(-2.46674 -0.0106812 0)
(-2.47664 -0.0122445 0)
(-2.48655 -0.0141751 0)
(-2.49647 -0.0164699 0)
(-2.50639 -0.0190883 0)
(-2.5163 -0.0219227 0)
(-2.52619 -0.0247627 0)
(-2.53597 -0.0272452 0)
(-2.54547 -0.0287905 0)
(-2.5543 -0.0285301 0)
(-2.56175 -0.0252404 0)
(-2.56637 -0.0171745 0)
(-2.57001 -0.00148488 0)
(-2.56379 0.028789 0)
(-2.55096 0.0807807 0)
(-2.52462 0.175281 0)
(-2.463 0.347101 0)
(-2.36652 0.622077 0)
(-2.19934 -0.00206974 0)
(-2.19807 -0.00368245 0)
(-2.20112 -0.0047111 0)
(-2.20355 -0.00535021 0)
(-2.20621 -0.00574256 0)
(-2.20911 -0.0059805 0)
(-2.2121 -0.00612742 0)
(-2.21527 -0.0062197 0)
(-2.2185 -0.00628071 0)
(-2.22187 -0.00632276 0)
(-2.2253 -0.00635435 0)
(-2.22886 -0.00637911 0)
(-2.23248 -0.0064001 0)
(-2.23622 -0.00641825 0)
(-2.24003 -0.0064347 0)
(-2.24395 -0.0064491 0)
(-2.24794 -0.0064622 0)
(-2.25203 -0.00647358 0)
(-2.25619 -0.00648314 0)
(-2.26046 -0.00649033 0)
(-2.26479 -0.00649666 0)
(-2.26922 -0.00650274 0)
(-2.27372 -0.00650924 0)
(-2.27831 -0.00651448 0)
(-2.28296 -0.00651386 0)
(-2.28772 -0.00650917 0)
(-2.29254 -0.00650387 0)
(-2.29748 -0.00649708 0)
(-2.3025 -0.00648986 0)
(-2.30763 -0.00648207 0)
(-2.31283 -0.00647401 0)
(-2.31814 -0.00646551 0)
(-2.32353 -0.00645709 0)
(-2.329 -0.00644848 0)
(-2.33455 -0.00644046 0)
(-2.34019 -0.00643337 0)
(-2.34589 -0.00642758 0)
(-2.35166 -0.00642312 0)
(-2.3575 -0.0064204 0)
(-2.3634 -0.00641937 0)
(-2.36935 -0.00642033 0)
(-2.37536 -0.00642334 0)
(-2.38141 -0.00642836 0)
(-2.38751 -0.00643532 0)
(-2.39364 -0.00644417 0)
(-2.39983 -0.00645438 0)
(-2.40604 -0.00646545 0)
(-2.41229 -0.00647655 0)
(-2.41857 -0.00648808 0)
(-2.42488 -0.00649998 0)
(-2.43121 -0.00651112 0)
(-2.43759 -0.00651888 0)
(-2.44398 -0.00652272 0)
(-2.45041 -0.00652085 0)
(-2.45687 -0.00651194 0)
(-2.46335 -0.00649373 0)
(-2.46989 -0.00646441 0)
(-2.47644 -0.00642305 0)
(-2.48302 -0.00636885 0)
(-2.48963 -0.00630187 0)
(-2.49628 -0.0062216 0)
(-2.50296 -0.00612672 0)
(-2.50969 -0.00601497 0)
(-2.51647 -0.00588202 0)
(-2.5233 -0.00572889 0)
(-2.53019 -0.00556346 0)
(-2.53714 -0.00538211 0)
(-2.54416 -0.00518393 0)
(-2.55125 -0.00497073 0)
(-2.55842 -0.00474586 0)
(-2.56567 -0.00451421 0)
(-2.57301 -0.00428263 0)
(-2.58043 -0.004062 0)
(-2.58796 -0.00386028 0)
(-2.59559 -0.00370195 0)
(-2.60332 -0.00360138 0)
(-2.61116 -0.00358136 0)
(-2.61912 -0.0036698 0)
(-2.6272 -0.00389872 0)
(-2.63541 -0.00430284 0)
(-2.64377 -0.00493793 0)
(-2.65228 -0.00584432 0)
(-2.66096 -0.0070381 0)
(-2.66983 -0.00857117 0)
(-2.6789 -0.0104725 0)
(-2.68818 -0.0127339 0)
(-2.69767 -0.0153191 0)
(-2.70736 -0.0181289 0)
(-2.71719 -0.0209719 0)
(-2.72701 -0.0235277 0)
(-2.73656 -0.0252985 0)
(-2.74529 -0.0255609 0)
(-2.75227 -0.023303 0)
(-2.75579 -0.0172728 0)
(-2.75604 -0.00433805 0)
(-2.7446 0.0210424 0)
(-2.71846 0.0660594 0)
(-2.66679 0.147613 0)
(-2.56115 0.290044 0)
(-2.41661 0.495108 0)
(-2.34681 -0.0016535 0)
(-2.34653 -0.00268402 0)
(-2.35018 -0.00339477 0)
(-2.35352 -0.00384268 0)
(-2.35705 -0.00410963 0)
(-2.36095 -0.00426004 0)
(-2.36489 -0.00434005 0)
(-2.36907 -0.00437791 0)
(-2.37322 -0.00439121 0)
(-2.37757 -0.00439 0)
(-2.38189 -0.00438075 0)
(-2.38636 -0.00436655 0)
(-2.39081 -0.00434972 0)
(-2.3954 -0.00433106 0)
(-2.39997 -0.00431156 0)
(-2.40467 -0.00429075 0)
(-2.40934 -0.00426946 0)
(-2.41414 -0.0042471 0)
(-2.41892 -0.00422412 0)
(-2.4238 -0.00419988 0)
(-2.42867 -0.00417583 0)
(-2.43364 -0.00415182 0)
(-2.4386 -0.00412825 0)
(-2.44364 -0.00410306 0)
(-2.44868 -0.00407537 0)
(-2.45383 -0.00404446 0)
(-2.45893 -0.00401184 0)
(-2.46409 -0.00397786 0)
(-2.46923 -0.00394504 0)
(-2.47443 -0.00391311 0)
(-2.47959 -0.00388283 0)
(-2.4848 -0.00385338 0)
(-2.48998 -0.00382574 0)
(-2.4952 -0.00379948 0)
(-2.50038 -0.00377573 0)
(-2.50559 -0.00375469 0)
(-2.51077 -0.00373697 0)
(-2.51597 -0.00372253 0)
(-2.52113 -0.00371147 0)
(-2.52631 -0.00370389 0)
(-2.53146 -0.00369996 0)
(-2.53662 -0.00369965 0)
(-2.54175 -0.00370279 0)
(-2.54689 -0.00370916 0)
(-2.552 -0.00371859 0)
(-2.55713 -0.00373041 0)
(-2.56222 -0.00374403 0)
(-2.56733 -0.00375865 0)
(-2.57242 -0.00377444 0)
(-2.57752 -0.00379048 0)
(-2.58262 -0.00380588 0)
(-2.58773 -0.00381807 0)
(-2.59283 -0.00382631 0)
(-2.59796 -0.00382876 0)
(-2.6031 -0.00382256 0)
(-2.60825 -0.00380751 0)
(-2.61343 -0.00378406 0)
(-2.61863 -0.00374958 0)
(-2.62384 -0.00370147 0)
(-2.62908 -0.00363918 0)
(-2.63434 -0.003562 0)
(-2.63965 -0.00346846 0)
(-2.64499 -0.00335645 0)
(-2.65038 -0.00322091 0)
(-2.65583 -0.00305668 0)
(-2.66136 -0.00288372 0)
(-2.66695 -0.00269251 0)
(-2.67263 -0.00248145 0)
(-2.67839 -0.00225215 0)
(-2.68425 -0.00200809 0)
(-2.69022 -0.00175435 0)
(-2.69631 -0.00149802 0)
(-2.70252 -0.00125085 0)
(-2.70885 -0.00101114 0)
(-2.71535 -0.000820921 0)
(-2.72199 -0.000683201 0)
(-2.7288 -0.000620626 0)
(-2.73579 -0.000660537 0)
(-2.74298 -0.000834225 0)
(-2.7504 -0.00117598 0)
(-2.75806 -0.00173425 0)
(-2.76593 -0.00257138 0)
(-2.7741 -0.00367215 0)
(-2.78256 -0.00510427 0)
(-2.79133 -0.00690582 0)
(-2.80041 -0.00905857 0)
(-2.8098 -0.0115387 0)
(-2.81948 -0.0142647 0)
(-2.82934 -0.0170736 0)
(-2.8392 -0.0197041 0)
(-2.8487 -0.0217593 0)
(-2.8572 -0.0226821 0)
(-2.86361 -0.0217142 0)
(-2.86615 -0.0179797 0)
(-2.86297 -0.00898681 0)
(-2.84819 0.00957859 0)
(-2.81114 0.0437578 0)
(-2.73992 0.10556 0)
(-2.60352 0.210392 0)
(-2.43039 0.349358 0)
(-2.46652 -0.000964868 0)
(-2.46703 -0.0014379 0)
(-2.47074 -0.00181698 0)
(-2.47436 -0.00205497 0)
(-2.47805 -0.00218848 0)
(-2.4822 -0.00225369 0)
(-2.48623 -0.00227692 0)
(-2.49057 -0.00227567 0)
(-2.49472 -0.00226001 0)
(-2.49911 -0.00223659 0)
(-2.50331 -0.00220897 0)
(-2.50771 -0.00217933 0)
(-2.51192 -0.0021488 0)
(-2.5163 -0.002118 0)
(-2.52051 -0.00208738 0)
(-2.52486 -0.00205667 0)
(-2.52905 -0.00202637 0)
(-2.53337 -0.00199594 0)
(-2.53754 -0.00196591 0)
(-2.54182 -0.0019358 0)
(-2.54596 -0.00190655 0)
(-2.5502 -0.0018779 0)
(-2.5543 -0.00184966 0)
(-2.55849 -0.0018193 0)
(-2.56255 -0.00179055 0)
(-2.56668 -0.00176339 0)
(-2.57068 -0.00173708 0)
(-2.57472 -0.00171061 0)
(-2.57864 -0.00168642 0)
(-2.58259 -0.00166396 0)
(-2.58643 -0.00164422 0)
(-2.59029 -0.00162548 0)
(-2.59405 -0.00160875 0)
(-2.59782 -0.0015936 0)
(-2.60152 -0.00158139 0)
(-2.60522 -0.00157192 0)
(-2.60886 -0.00156602 0)
(-2.6125 -0.00156337 0)
(-2.61609 -0.0015638 0)
(-2.61968 -0.00156744 0)
(-2.62323 -0.00157428 0)
(-2.6268 -0.00158426 0)
(-2.63032 -0.00159703 0)
(-2.63387 -0.00161229 0)
(-2.63739 -0.0016297 0)
(-2.64093 -0.00164858 0)
(-2.64446 -0.00166824 0)
(-2.64802 -0.0016881 0)
(-2.65158 -0.00170758 0)
(-2.65517 -0.00172588 0)
(-2.65878 -0.00174177 0)
(-2.66242 -0.00175343 0)
(-2.6661 -0.00175948 0)
(-2.66981 -0.00175811 0)
(-2.67357 -0.0017468 0)
(-2.67738 -0.00172555 0)
(-2.68123 -0.00169496 0)
(-2.68516 -0.00165225 0)
(-2.68914 -0.00159434 0)
(-2.6932 -0.00152015 0)
(-2.69733 -0.00142875 0)
(-2.70155 -0.0013188 0)
(-2.70585 -0.00118769 0)
(-2.71025 -0.00103685 0)
(-2.71474 -0.000833314 0)
(-2.71936 -0.000635394 0)
(-2.72409 -0.000415038 0)
(-2.72894 -0.000170617 0)
(-2.73392 9.58172e-05 0)
(-2.73903 0.000380786 0)
(-2.74428 0.000678915 0)
(-2.74969 0.000982508 0)
(-2.75527 0.00128347 0)
(-2.761 0.00158329 0)
(-2.76694 0.00183782 0)
(-2.77309 0.00204537 0)
(-2.77945 0.00218425 0)
(-2.78605 0.00222772 0)
(-2.7929 0.00214446 0)
(-2.8 0.00189578 0)
(-2.80738 0.00144352 0)
(-2.81502 0.000728437 0)
(-2.82301 -0.000245303 0)
(-2.8314 -0.00153506 0)
(-2.84003 -0.00319186 0)
(-2.84906 -0.00518825 0)
(-2.85848 -0.00752718 0)
(-2.86821 -0.0101469 0)
(-2.87813 -0.0129168 0)
(-2.88802 -0.0156469 0)
(-2.89746 -0.0180524 0)
(-2.90575 -0.0197504 0)
(-2.91174 -0.0202671 0)
(-2.91361 -0.0190132 0)
(-2.90832 -0.0146274 0)
(-2.89077 -0.00431214 0)
(-2.84889 0.0160337 0)
(-2.7643 0.0533879 0)
(-2.60954 0.115978 0)
(-2.42179 0.194719 0)
(-2.53642 -6.96504e-05 0)
(-2.53742 -0.000148478 0)
(-2.5408 -0.000226155 0)
(-2.54422 -0.00027046 0)
(-2.54762 -0.000289683 0)
(-2.55147 -0.000292279 0)
(-2.55508 -0.000285363 0)
(-2.55899 -0.000273377 0)
(-2.56261 -0.000258866 0)
(-2.56645 -0.000243733 0)
(-2.56997 -0.000228642 0)
(-2.5737 -0.000214204 0)
(-2.57711 -0.000200347 0)
(-2.5807 -0.000187267 0)
(-2.584 -0.000174722 0)
(-2.58746 -0.000162668 0)
(-2.59064 -0.000150897 0)
(-2.59397 -0.000139351 0)
(-2.59704 -0.000127914 0)
(-2.60024 -0.000116765 0)
(-2.60322 -0.000105927 0)
(-2.60631 -9.55824e-05 -1.12357e-42)
(-2.60919 -8.49679e-05 0)
(-2.61217 -7.30731e-05 0)
(-2.61497 -6.2879e-05 0)
(-2.61785 -5.52488e-05 0)
(-2.62058 -4.89328e-05 0)
(-2.62337 -4.28758e-05 0)
(-2.62605 -3.80519e-05 0)
(-2.62877 -3.45912e-05 0)
(-2.6314 -3.30367e-05 0)
(-2.63407 -3.13348e-05 0)
(-2.63667 -2.92165e-05 0)
(-2.63929 -2.74726e-05 0)
(-2.64187 -2.75776e-05 0)
(-2.64448 -2.91047e-05 0)
(-2.64705 -3.27875e-05 0)
(-2.64965 -3.81916e-05 0)
(-2.65223 -4.51238e-05 0)
(-2.65484 -5.37094e-05 0)
(-2.65745 -6.38403e-05 0)
(-2.66008 -7.54484e-05 0)
(-2.66272 -8.81443e-05 0)
(-2.6654 -0.000101595 0)
(-2.66808 -0.000115416 0)
(-2.67082 -0.000128973 0)
(-2.67356 -0.00014151 0)
(-2.67637 -0.000152699 0)
(-2.6792 -0.000161304 0)
(-2.68209 -0.000166814 0)
(-2.68502 -0.000167707 0)
(-2.68801 -0.000162874 0)
(-2.69105 -0.00015037 0)
(-2.69416 -0.000128546 0)
(-2.69733 -9.55008e-05 0)
(-2.70057 -5.072e-05 0)
(-2.70388 5.92091e-06 0)
(-2.70727 7.74892e-05 0)
(-2.71074 0.000166704 0)
(-2.7143 0.000274513 0)
(-2.71796 0.000401644 0)
(-2.72171 0.000549878 0)
(-2.72556 0.000719914 0)
(-2.72954 0.000913303 0)
(-2.7336 0.00116326 0)
(-2.73778 0.00141006 0)
(-2.74209 0.0016819 0)
(-2.74653 0.00198095 0)
(-2.75112 0.00230544 0)
(-2.75586 0.00265223 0)
(-2.76075 0.00301612 0)
(-2.76581 0.00339019 0)
(-2.77104 0.00376935 0)
(-2.77647 0.00414574 0)
(-2.78209 0.00449225 0)
(-2.78792 0.00479671 0)
(-2.79399 0.00503852 0)
(-2.8003 0.00519166 0)
(-2.80687 0.00522441 0)
(-2.81372 0.00509847 0)
(-2.82086 0.00477508 0)
(-2.82834 0.00421836 0)
(-2.83615 0.00339134 3.9865e-41)
(-2.84436 0.00225894 0)
(-2.85282 0.00077827 0)
(-2.86171 -0.00104521 0)
(-2.87092 -0.00322322 0)
(-2.88032 -0.00571787 -6.72132e-41)
(-2.88996 -0.00844729 0)
(-2.8995 -0.0112943 0)
(-2.9085 -0.0140876 0)
(-2.91623 -0.0166196 0)
(-2.92152 -0.0186877 0)
(-2.92248 -0.0200752 -1.17991e-40)
(-2.91592 -0.0204038 0)
(-2.89578 -0.01886 0)
(-2.85204 -0.014068 -1.65369e-40)
(-2.76265 -0.00382244 0)
(-2.60084 0.0140975 0)
(-2.40835 0.0371195 0)
(-2.5247 0.000894196 0)
(-2.52563 0.00112253 0)
(-2.52908 0.00133154 0)
(-2.53255 0.00146932 0)
(-2.53602 0.00155321 0)
(-2.53994 0.00160158 0)
(-2.54365 0.00162629 0)
(-2.54766 0.00163647 0)
(-2.55139 0.00163691 0)
(-2.55536 0.00163099 0)
(-2.55903 0.0016207 0)
(-2.5629 0.00160749 0)
(-2.56648 0.00159238 0)
(-2.57024 0.00157597 0)
(-2.57372 0.00155895 0)
(-2.57736 0.00154153 0)
(-2.58073 0.00152436 0)
(-2.58426 0.00150733 0)
(-2.58753 0.00149104 0)
(-2.59094 0.00147499 0)
(-2.59412 0.00145974 0)
(-2.59742 0.00144472 1.69826e-41)
(-2.60051 0.00143121 0)
(-2.60371 0.00141855 0)
(-2.60671 0.00140631 0)
(-2.60981 0.00139324 0)
(-2.61274 0.00138081 0)
(-2.61575 0.00136857 0)
(-2.61862 0.00135708 0)
(-2.62155 0.00134473 0)
(-2.62437 0.00133153 0)
(-2.62723 0.00131965 0)
(-2.63 0.00131196 0)
(-2.6328 0.00130513 0)
(-2.63554 0.001298 0)
(-2.6383 0.00129056 0)
(-2.64102 0.00128313 0)
(-2.64376 0.00127571 0)
(-2.64647 0.00126827 0)
(-2.6492 0.00126096 0)
(-2.65192 0.00125393 0)
(-2.65466 0.00124725 0)
(-2.65739 0.00124123 0)
(-2.66016 0.00123628 0)
(-2.66292 0.00123273 0)
(-2.66573 0.0012312 0)
(-2.66854 0.00123244 0)
(-2.6714 0.00123686 0)
(-2.67428 0.00124566 0)
(-2.67721 0.0012595 0)
(-2.68017 0.00127974 0)
(-2.68319 0.00130749 0)
(-2.68624 0.00134478 0)
(-2.68936 0.00139302 0)
(-2.69252 0.00145412 0)
(-2.69575 0.00152882 0)
(-2.69904 0.00161732 0)
(-2.70241 0.00172318 0)
(-2.70584 0.00184963 0)
(-2.70936 0.00199712 0)
(-2.71295 0.00216599 0)
(-2.71664 0.00235833 0)
(-2.72042 0.00257407 0)
(-2.72431 0.00282267 0)
(-2.7283 0.00311003 0)
(-2.73238 0.00341457 0)
(-2.73659 0.00374608 0)
(-2.74092 0.00410715 0)
(-2.74537 0.00449711 0)
(-2.74997 0.00491353 0)
(-2.75472 0.00535188 0)
(-2.75962 0.00580662 0)
(-2.76469 0.00627175 0)
(-2.76994 0.00673685 0)
(-2.77538 0.007183 0)
(-2.78104 0.00759486 0)
(-2.78692 0.00795211 0)
(-2.79305 0.0082294 0)
(-2.79944 0.0083958 0)
(-2.80612 0.00841552 0)
(-2.81311 0.00825036 0)
(-2.82044 0.0078645 0)
(-2.82813 0.00721229 8.478e-41)
(-2.83621 0.00625866 0)
(-2.84467 0.00496845 0)
(-2.85355 0.00331591 0)
(-2.86272 0.00129886 0)
(-2.8721 -0.00108207 -1.27197e-41)
(-2.88157 -0.0037819 0)
(-2.8908 -0.00674923 0)
(-2.89955 -0.00994767 0)
(-2.90701 -0.0133291 0)
(-2.91202 -0.0169451 0)
(-2.91275 -0.0210198 -1.23543e-40)
(-2.90598 -0.0260553 0)
(-2.88586 -0.0330948 0)
(-2.84173 -0.0438531 -5.15491e-40)
(-2.75443 -0.0612693 0)
(-2.59473 -0.0883812 0)
(-2.40478 -0.119564 0)
(-2.43945 0.0017269 0)
(-2.43962 0.00238988 0)
(-2.4433 0.00290236 0)
(-2.44679 0.00323622 0)
(-2.45036 0.00343942 0)
(-2.45439 0.00355623 0)
(-2.45833 0.0036185 0)
(-2.46257 0.00364693 0)
(-2.46667 0.00365403 0)
(-2.471 0.00364769 0)
(-2.47518 0.00363264 0)
(-2.47956 0.00361205 0)
(-2.48379 0.00358779 0)
(-2.48819 0.00356114 0)
(-2.49246 0.00353305 0)
(-2.49688 0.00350403 0)
(-2.50116 0.00347476 0)
(-2.50559 0.00344538 0)
(-2.5099 0.00341639 0)
(-2.51432 0.00338749 0)
(-2.51863 0.00335917 0)
(-2.52306 0.00333098 0)
(-2.52736 0.00330401 0)
(-2.53177 0.00327726 0)
(-2.53606 0.00325153 0)
(-2.54045 0.00322552 0)
(-2.54473 0.00320064 0)
(-2.54908 0.00317573 0)
(-2.55335 0.00315197 0)
(-2.55767 0.00312719 0)
(-2.5619 0.0031015 0)
(-2.56617 0.00307632 0)
(-2.57037 0.00305503 0)
(-2.57459 0.00303337 0)
(-2.57871 0.00301169 0)
(-2.58284 0.00299008 0)
(-2.58689 0.00297011 0)
(-2.59093 0.00295122 0)
(-2.59491 0.00293344 0)
(-2.59888 0.00291723 0)
(-2.60279 0.00290284 0)
(-2.6067 0.0028904 0)
(-2.61055 0.00288021 0)
(-2.6144 0.00287278 0)
(-2.61821 0.00286841 0)
(-2.62202 0.00286776 0)
(-2.6258 0.0028716 0)
(-2.62958 0.00288052 0)
(-2.63333 0.00289551 0)
(-2.63711 0.00291747 0)
(-2.64085 0.00294763 0)
(-2.64463 0.00298713 0)
(-2.64839 0.00303774 0)
(-2.65217 0.00310134 0)
(-2.65595 0.00317965 0)
(-2.65977 0.00327353 0)
(-2.66359 0.00338296 0)
(-2.66745 0.00351177 0)
(-2.67133 0.00366491 0)
(-2.67526 0.00384195 0)
(-2.67921 0.00404269 0)
(-2.68323 0.00426899 0)
(-2.68729 0.00452331 0)
(-2.69142 0.00481228 0)
(-2.6956 0.00513598 0)
(-2.69986 0.00548661 0)
(-2.70419 0.00586835 0)
(-2.70861 0.00628305 0)
(-2.71312 0.00673069 0)
(-2.71773 0.00720958 0)
(-2.72246 0.00771604 0)
(-2.72732 0.0082453 0)
(-2.73232 0.00879113 0)
(-2.73748 0.00934308 0)
(-2.7428 0.00988608 0)
(-2.74832 0.0104044 0)
(-2.75405 0.0108783 0)
(-2.76002 0.0112829 0)
(-2.76625 0.0115887 0)
(-2.77276 0.0117614 0)
(-2.7796 0.0117644 0)
(-2.78678 0.0115594 0)
(-2.79434 0.0111025 0)
(-2.80231 0.0103538 0)
(-2.8107 0.00926812 0)
(-2.81951 0.00780952 0)
(-2.8287 0.00595314 0)
(-2.83824 0.00366716 0)