/*--------------------------------*- C++ -*----------------------------------*\
| =========                 |                                                 |
| \\      /  F ield         | OpenFOAM: The Open Source CFD Toolbox           |
|  \\    /   O peration     | Version:  2.1.0                                 |
|   \\  /    A nd           | Web:      www.OpenFOAM.org                      |
|    \\/     M anipulation  |                                                 |
\*---------------------------------------------------------------------------*/
FoamFile
{
    version     2.0;
    format      ascii;
    class       volScalarField;
    location    "0.22";
    object      nut;
}
// * * * * * * * * * * * * * * * * * * * * * * * * * * * * * * * * * * * * * //

dimensions      [0 2 -1 0 0 0 0];

internalField   nonuniform List<scalar> 
6400
(
6.82225e-06
6.83717e-06
6.84645e-06
6.85883e-06
6.87036e-06
6.88508e-06
6.89689e-06
6.91273e-06
6.92506e-06
6.94141e-06
6.95451e-06
6.97108e-06
6.98508e-06
7.00183e-06
7.01678e-06
7.03376e-06
7.04972e-06
7.06709e-06
7.08409e-06
7.10205e-06
7.12015e-06
7.13887e-06
7.15809e-06
7.17774e-06
7.19812e-06
7.2188e-06
7.24037e-06
7.26219e-06
7.285e-06
7.30807e-06
7.33219e-06
7.35662e-06
7.38213e-06
7.40803e-06
7.43503e-06
7.46248e-06
7.49099e-06
7.51996e-06
7.54986e-06
7.58013e-06
7.61108e-06
7.64229e-06
7.67393e-06
7.70564e-06
7.73748e-06
7.76914e-06
7.80064e-06
7.83169e-06
7.86219e-06
7.89174e-06
7.91967e-06
7.94508e-06
7.96869e-06
7.99337e-06
8.01627e-06
8.03974e-06
8.06177e-06
8.08358e-06
8.10441e-06
8.12498e-06
8.14456e-06
8.16364e-06
8.1813e-06
8.19817e-06
8.21309e-06
8.22672e-06
8.23796e-06
8.24587e-06
8.25147e-06
8.25282e-06
8.25067e-06
8.24436e-06
8.23358e-06
8.21902e-06
8.20022e-06
8.17875e-06
8.15486e-06
8.13082e-06
8.10774e-06
8.08826e-06
8.07382e-06
8.06585e-06
8.06424e-06
8.06959e-06
8.07741e-06
8.09588e-06
8.11799e-06
8.13836e-06
8.13796e-06
8.0846e-06
7.91629e-06
7.50717e-06
6.64275e-06
5.10912e-06
2.99885e-06
1.88386e-06
2.10998e-06
3.55694e-06
3.75393e-06
4.08099e-06
7.23157e-05
7.26929e-05
7.275e-05
7.29846e-05
7.305e-05
7.32386e-05
7.33208e-05
7.3479e-05
7.35749e-05
7.37115e-05
7.38156e-05
7.3936e-05
7.40428e-05
7.41502e-05
7.42553e-05
7.43517e-05
7.44519e-05
7.45387e-05
7.46321e-05
7.47105e-05
7.47968e-05
7.48692e-05
7.4949e-05
7.50152e-05
7.5088e-05
7.51483e-05
7.52135e-05
7.52668e-05
7.5323e-05
7.53678e-05
7.54131e-05
7.54472e-05
7.54793e-05
7.54995e-05
7.55183e-05
7.55266e-05
7.55311e-05
7.55257e-05
7.55152e-05
7.5494e-05
7.54626e-05
7.54168e-05
7.53566e-05
7.52777e-05
7.51793e-05
7.50567e-05
7.49088e-05
7.47311e-05
7.45231e-05
7.42859e-05
7.40221e-05
7.36663e-05
7.30782e-05
7.24611e-05
7.18051e-05
7.11169e-05
7.03926e-05
6.96292e-05
6.88258e-05
6.79888e-05
6.71164e-05
6.6207e-05
6.52602e-05
6.42788e-05
6.3257e-05
6.21922e-05
6.10909e-05
5.99416e-05
5.87464e-05
5.74958e-05
5.61966e-05
5.48415e-05
5.34315e-05
5.19668e-05
5.04458e-05
4.88726e-05
4.72468e-05
4.55744e-05
4.38573e-05
4.21034e-05
4.03171e-05
3.84998e-05
3.66413e-05
3.47491e-05
3.28105e-05
3.08123e-05
2.87325e-05
2.65775e-05
2.43326e-05
2.20117e-05
1.96374e-05
1.72591e-05
1.49396e-05
1.27879e-05
1.07539e-05
8.80478e-06
7.20246e-06
6.08384e-06
5.51184e-06
6.73486e-06
0.000110375
0.000110485
0.000110525
0.000110523
0.000110542
0.000110506
0.000110508
0.000110447
0.000110432
0.000110351
0.000110316
0.000110214
0.000110157
0.000110033
0.000109949
0.000109802
0.000109687
0.000109515
0.000109368
0.000109168
0.000108986
0.000108761
0.000108553
0.000108304
0.000108065
0.000107792
0.000107525
0.000107227
0.00010693
0.000106606
0.000106279
0.000105927
0.000105569
0.000105188
0.000104791
0.000104367
0.000103924
0.000103451
0.000102954
0.000102427
0.000101881
0.000101304
0.000100701
0.000100061
9.93854e-05
9.86655e-05
9.79004e-05
9.70789e-05
9.60712e-05
9.47025e-05
9.33085e-05
9.18687e-05
9.04132e-05
8.89165e-05
8.73992e-05
8.58464e-05
8.42754e-05
8.2675e-05
8.10532e-05
7.94067e-05
7.77483e-05
7.60462e-05
7.43272e-05
7.25833e-05
7.08147e-05
6.90286e-05
6.7219e-05
6.53939e-05
6.3548e-05
6.16843e-05
5.98005e-05
5.78979e-05
5.5974e-05
5.40309e-05
5.20663e-05
5.0084e-05
4.80832e-05
4.60696e-05
4.4045e-05
4.20166e-05
3.99877e-05
3.79652e-05
3.59529e-05
3.39566e-05
3.19781e-05
3.00307e-05
2.81134e-05
2.62317e-05
2.43841e-05
2.2566e-05
2.07555e-05
1.8967e-05
1.71831e-05
1.53316e-05
1.34339e-05
1.15324e-05
9.79179e-06
8.30473e-06
7.7911e-06
1.10564e-05
0.000130769
0.00013031
0.000130129
0.000129729
0.00012954
0.000129123
0.000128903
0.000128473
0.000128212
0.000127769
0.000127464
0.000127004
0.000126654
0.000126171
0.000125775
0.000125265
0.000124819
0.000124275
0.000123774
0.000123187
0.000122563
0.000121579
0.0001206
0.000119576
0.000118559
0.000117501
0.000116441
0.000115345
0.000114244
0.000113109
0.000111965
0.000110788
0.000109598
0.000108379
0.000107144
0.000105878
0.000104596
0.000103282
0.000101951
0.000100588
9.92068e-05
9.77949e-05
9.63638e-05
9.49037e-05
9.34233e-05
9.19162e-05
9.03899e-05
8.88328e-05
8.72653e-05
8.56951e-05
8.40956e-05
8.24855e-05
8.0864e-05
7.92225e-05
7.75715e-05
7.58966e-05
7.42119e-05
7.25024e-05
7.07813e-05
6.90415e-05
6.72917e-05
6.55263e-05
6.37529e-05
6.19694e-05
6.01795e-05
5.83867e-05
5.65927e-05
5.48035e-05
5.30212e-05
5.12519e-05
4.94991e-05
4.77688e-05
4.60643e-05
4.43908e-05
4.2751e-05
4.11481e-05
3.95829e-05
3.80565e-05
3.6567e-05
3.51121e-05
3.36866e-05
3.22832e-05
3.08919e-05
2.95184e-05
2.81427e-05
2.67553e-05
2.53533e-05
2.3928e-05
2.24804e-05
2.10036e-05
1.94997e-05
1.79663e-05
1.63992e-05
1.47958e-05
1.31521e-05
1.158e-05
1.02021e-05
9.57009e-06
1.22712e-05
1.26358e-05
0.000130506
0.000130347
0.000130004
0.000129649
0.000128829
0.000128086
0.000127131
0.000126228
0.000125225
0.000124236
0.000123205
0.00012216
0.000121101
0.000120011
0.000118921
0.000117794
0.000116667
0.000115503
0.00011434
0.000113139
0.00011194
0.000110711
0.000109483
0.000108218
0.000106955
0.000105656
0.00010436
0.00010303
0.000101701
0.000100341
9.89805e-05
9.75915e-05
9.61912e-05
9.47738e-05
9.33563e-05
9.1909e-05
9.04592e-05
8.8984e-05
8.75082e-05
8.6009e-05
8.4509e-05
8.29896e-05
8.14691e-05
7.9934e-05
7.83985e-05
7.68537e-05
7.53107e-05
7.37634e-05
7.2221e-05
7.06785e-05
6.91388e-05
6.75985e-05
6.60626e-05
6.45287e-05
6.30043e-05
6.14849e-05
5.99846e-05
5.84929e-05
5.70218e-05
5.55641e-05
5.41286e-05
5.27104e-05
5.13166e-05
4.99435e-05
4.8596e-05
4.72716e-05
4.59726e-05
4.46971e-05
4.34452e-05
4.22101e-05
4.09997e-05
3.98177e-05
3.8636e-05
3.74822e-05
3.63271e-05
3.51895e-05
3.40472e-05
3.29138e-05
3.17727e-05
3.06293e-05
2.94726e-05
2.83072e-05
2.71269e-05
2.59345e-05
2.47235e-05
2.35e-05
2.22678e-05
2.10328e-05
1.9797e-05
1.85742e-05
1.7372e-05
1.62062e-05
1.50829e-05
1.40194e-05
1.30329e-05
1.23226e-05
1.22058e-05
1.41893e-05
1.45814e-05
1.44732e-05
0.000116849
0.000116064
0.000115574
0.000114873
0.000113927
0.000112927
0.000111838
0.000110716
0.000109574
0.000108394
0.000107226
0.000106014
0.000104827
0.000103594
0.000102379
0.000101144
9.99185e-05
9.86727e-05
9.74372e-05
9.61797e-05
9.49401e-05
9.36777e-05
9.24319e-05
9.1158e-05
8.99004e-05
8.86089e-05
8.73302e-05
8.60206e-05
8.47184e-05
8.33904e-05
8.20751e-05
8.07375e-05
7.94108e-05
7.80669e-05
7.67319e-05
7.53836e-05
7.40458e-05
7.26984e-05
7.13639e-05
7.00237e-05
6.86986e-05
6.7372e-05
6.60624e-05
6.47557e-05
6.34674e-05
6.21862e-05
6.09245e-05
5.96728e-05
5.84407e-05
5.72207e-05
5.60211e-05
5.48355e-05
5.36697e-05
5.25186e-05
5.1384e-05
5.02654e-05
4.91754e-05
4.80977e-05
4.70374e-05
4.59923e-05
4.49602e-05
4.39398e-05
4.29295e-05
4.19284e-05
4.09354e-05
3.99495e-05
3.89699e-05
3.79955e-05
3.70265e-05
3.60619e-05
3.51028e-05
3.4147e-05
3.31981e-05
3.22594e-05
3.13302e-05
3.04173e-05
2.95167e-05
2.86355e-05
2.77693e-05
2.69259e-05
2.61012e-05
2.52991e-05
2.45129e-05
2.37447e-05
2.29908e-05
2.22498e-05
2.15171e-05
2.07969e-05
2.0098e-05
1.9425e-05
1.87897e-05
1.82045e-05
1.76919e-05
1.73018e-05
1.72134e-05
1.76684e-05
1.72412e-05
1.69887e-05
1.69861e-05
1.35966e-05
0.000100262
9.89949e-05
9.84381e-05
9.75027e-05
9.66222e-05
9.55285e-05
9.45265e-05
9.33743e-05
9.23201e-05
9.11489e-05
9.00696e-05
8.88935e-05
8.78005e-05
8.66252e-05
8.55249e-05
8.43553e-05
8.32503e-05
8.2089e-05
8.09839e-05
7.98329e-05
7.8731e-05
7.75916e-05
7.64965e-05
7.53731e-05
7.42918e-05
7.31782e-05
7.21008e-05
7.10031e-05
6.99352e-05
6.88517e-05
6.77981e-05
6.67314e-05
6.5691e-05
6.46394e-05
6.36101e-05
6.25718e-05
6.15524e-05
6.05216e-05
5.95105e-05
5.84965e-05
5.74907e-05
5.6484e-05
5.54851e-05
5.44849e-05
5.34907e-05
5.24951e-05
5.15039e-05
5.05113e-05
4.95217e-05
4.85322e-05
4.75457e-05
4.65614e-05
4.55812e-05
4.46072e-05
4.36413e-05
4.26856e-05
4.17331e-05
4.06338e-05
3.95297e-05
3.84505e-05
3.74357e-05
3.64527e-05
3.55334e-05
3.4653e-05
3.38339e-05
3.30546e-05
3.23312e-05
3.1648e-05
3.10135e-05
3.04159e-05
2.98589e-05
2.93373e-05
2.88558e-05
2.8411e-05
2.80043e-05
2.76271e-05
2.72758e-05
2.69492e-05
2.66469e-05
2.63566e-05
2.60739e-05
2.57895e-05
2.54914e-05
2.5174e-05
2.48398e-05
2.44731e-05
2.40754e-05
2.36524e-05
2.3198e-05
2.27308e-05
2.22367e-05
2.17394e-05
2.12371e-05
2.07503e-05
2.03128e-05
1.99806e-05
1.97456e-05
1.97671e-05
2.03298e-05
1.50193e-05
8.59868e-05
8.43987e-05
8.38954e-05
8.29005e-05
8.21999e-05
8.11659e-05
8.03854e-05
7.93576e-05
7.85446e-05
7.75415e-05
7.67166e-05
7.57409e-05
7.49119e-05
7.39602e-05
7.31298e-05
7.21943e-05
7.13653e-05
7.04384e-05
6.96105e-05
6.8684e-05
6.78539e-05
6.69364e-05
6.60865e-05
6.51684e-05
6.42208e-05
6.28482e-05
6.15985e-05
6.02698e-05
5.906e-05
5.778e-05
5.66146e-05
5.5389e-05
5.42754e-05
5.31102e-05
5.2054e-05
5.09533e-05
4.99569e-05
4.89216e-05
4.79866e-05
4.70183e-05
4.61442e-05
4.52366e-05
4.44202e-05
4.35723e-05
4.28121e-05
4.20219e-05
4.1316e-05
4.05815e-05
3.99275e-05
3.92465e-05
3.86404e-05
3.80117e-05
3.74511e-05
3.68727e-05
3.63565e-05
3.58274e-05
3.53535e-05
3.48701e-05
3.4437e-05
3.39969e-05
3.36015e-05
3.32019e-05
3.28427e-05
3.24784e-05
3.21498e-05
3.18389e-05
3.15607e-05
3.12748e-05
3.10335e-05
3.0777e-05
3.05668e-05
3.03573e-05
3.01698e-05
2.99663e-05
2.98065e-05
2.96598e-05
2.95067e-05
2.93652e-05
2.92395e-05
2.91041e-05
2.89756e-05
2.88477e-05
2.87113e-05
2.85624e-05
2.83956e-05
2.82054e-05
2.79886e-05
2.77412e-05
2.74528e-05
2.71447e-05
2.68204e-05
2.64463e-05
2.60826e-05
2.57297e-05
2.5384e-05
2.51811e-05
2.51574e-05
2.53364e-05
2.56619e-05
1.97132e-05
7.03782e-05
6.83052e-05
6.74635e-05
6.58867e-05
6.5017e-05
6.35204e-05
6.26566e-05
6.1224e-05
6.03712e-05
5.90037e-05
5.81683e-05
5.68676e-05
5.60561e-05
5.48241e-05
5.40426e-05
5.28809e-05
5.21343e-05
5.10453e-05
5.03361e-05
4.93195e-05
4.86492e-05
4.77064e-05
4.70804e-05
4.62111e-05
4.56334e-05
4.48405e-05
4.43247e-05
4.3614e-05
4.31586e-05
4.25275e-05
4.21293e-05
4.15729e-05
4.1228e-05
4.07415e-05
4.04445e-05
4.00223e-05
3.97704e-05
3.94074e-05
3.91953e-05
3.88841e-05
3.87068e-05
3.84404e-05
3.82935e-05
3.80662e-05
3.79458e-05
3.77525e-05
3.76553e-05
3.74897e-05
3.74053e-05
3.73044e-05
3.72225e-05
3.71331e-05
3.70635e-05
3.70145e-05
3.69691e-05
3.69461e-05
3.69265e-05
3.69308e-05
3.69393e-05
3.69707e-05
3.70086e-05
3.70661e-05
3.71338e-05
3.72171e-05
3.7313e-05
3.74201e-05
3.75414e-05
3.76713e-05
3.78164e-05
3.79675e-05
3.81355e-05
3.83086e-05
3.84992e-05
3.86953e-05
3.89088e-05
3.91269e-05
3.93565e-05
3.95891e-05
3.98326e-05
4.0075e-05
4.03232e-05
4.0569e-05
4.08134e-05
4.10482e-05
4.12642e-05
4.14557e-05
4.16152e-05
4.17338e-05
4.1803e-05
4.18149e-05
4.17647e-05
4.16471e-05
4.1468e-05
4.12322e-05
4.09642e-05
4.07186e-05
4.06177e-05
4.08261e-05
4.11189e-05
3.65772e-05
5.54565e-05
5.36641e-05
5.29525e-05
5.16166e-05
5.09786e-05
4.9716e-05
4.91458e-05
4.79642e-05
4.74574e-05
4.63632e-05
4.5916e-05
4.49137e-05
4.45223e-05
4.36142e-05
4.32747e-05
4.24615e-05
4.21695e-05
4.14505e-05
4.12013e-05
4.05749e-05
4.03634e-05
3.98272e-05
3.96483e-05
3.91987e-05
3.90475e-05
3.86802e-05
3.85512e-05
3.82606e-05
3.8148e-05
3.79275e-05
3.78288e-05
3.76652e-05
3.75865e-05
3.74975e-05
3.74289e-05
3.73663e-05
3.73262e-05
3.72983e-05
3.729e-05
3.72857e-05
3.73075e-05
3.73257e-05
3.73749e-05
3.74154e-05
3.74901e-05
3.7553e-05
3.7652e-05
3.77372e-05
3.78598e-05
3.79682e-05
3.81117e-05
3.82437e-05
3.84092e-05
3.85667e-05
3.87541e-05
3.89371e-05
3.91467e-05
3.93558e-05
3.95883e-05
3.98232e-05
4.00795e-05
4.03404e-05
4.06217e-05
4.0909e-05
4.12162e-05
4.15307e-05
4.1865e-05
4.22078e-05
4.25713e-05
4.29442e-05
4.33386e-05
4.3744e-05
4.41721e-05
4.46132e-05
4.50778e-05
4.55573e-05
4.60608e-05
4.65829e-05
4.71294e-05
4.76961e-05
4.82887e-05
4.89033e-05
4.95442e-05
5.02082e-05
5.09062e-05
5.16335e-05
5.24002e-05
5.32082e-05
5.40635e-05
5.49724e-05
5.59396e-05
5.69735e-05
5.80791e-05
5.92636e-05
6.05314e-05
6.18803e-05
6.32747e-05
6.45977e-05
6.53464e-05
6.34719e-05
5.79264e-05
5.60432e-05
5.52922e-05
5.38798e-05
5.3189e-05
5.18515e-05
5.12165e-05
4.99612e-05
4.93797e-05
4.82121e-05
4.76859e-05
4.6607e-05
4.61379e-05
4.5147e-05
4.4736e-05
4.38318e-05
4.34783e-05
4.26591e-05
4.23612e-05
4.16245e-05
4.13792e-05
4.07219e-05
4.05255e-05
3.99449e-05
3.97902e-05
3.92899e-05
3.91613e-05
3.87423e-05
3.86343e-05
3.82933e-05
3.82005e-05
3.79334e-05
3.78517e-05
3.76535e-05
3.75786e-05
3.74364e-05
3.73684e-05
3.72999e-05
3.72426e-05
3.71779e-05
3.71582e-05
3.71249e-05
3.71313e-05
3.71236e-05
3.71552e-05
3.71721e-05
3.7228e-05
3.72687e-05
3.73482e-05
3.74123e-05
3.75151e-05
3.76031e-05
3.77296e-05
3.7842e-05
3.79905e-05
3.8126e-05
3.82956e-05
3.84557e-05
3.86473e-05
3.88305e-05
3.90413e-05
3.92482e-05
3.94785e-05
3.97081e-05
3.99592e-05
4.02101e-05
4.04826e-05
4.07541e-05
4.10481e-05
4.13402e-05
4.16543e-05
4.19679e-05
4.2302e-05
4.26372e-05
4.29913e-05
4.33491e-05
4.3725e-05
4.41082e-05
4.45098e-05
4.49224e-05
4.53545e-05
4.58019e-05
4.62718e-05
4.67624e-05
4.72812e-05
4.78273e-05
4.84065e-05
4.90164e-05
4.96671e-05
5.03657e-05
5.11173e-05
5.19306e-05
5.28121e-05
5.37736e-05
5.48319e-05
5.60148e-05
5.73544e-05
5.88412e-05
6.01386e-05
5.92202e-05
7.79345e-05
7.57787e-05
7.4898e-05
7.32461e-05
7.23199e-05
7.07586e-05
6.97903e-05
6.83124e-05
6.73106e-05
6.5886e-05
6.48798e-05
6.35029e-05
6.25093e-05
6.11771e-05
6.02022e-05
5.89189e-05
5.79689e-05
5.67379e-05
5.58186e-05
5.46431e-05
5.37599e-05
5.26427e-05
5.18007e-05
5.07444e-05
4.9948e-05
4.8956e-05
4.8204e-05
4.72757e-05
4.65716e-05
4.57084e-05
4.50552e-05
4.42597e-05
4.36597e-05
4.29409e-05
4.24028e-05
4.17602e-05
4.128e-05
4.07094e-05
4.02823e-05
3.9778e-05
3.94019e-05
3.89572e-05
3.86293e-05
3.82391e-05
3.79547e-05
3.76131e-05
3.73674e-05
3.70685e-05
3.6857e-05
3.65958e-05
3.64146e-05
3.61823e-05
3.60246e-05
3.58409e-05
3.5712e-05
3.55664e-05
3.54437e-05
3.53056e-05
3.52159e-05
3.51193e-05
3.50401e-05
3.49744e-05
3.49104e-05
3.48594e-05
3.48157e-05
3.47712e-05
3.47461e-05
3.47065e-05
3.46943e-05
3.46598e-05
3.46505e-05
3.46142e-05
3.45937e-05
3.45487e-05
3.45114e-05
3.44538e-05
3.43975e-05
3.43254e-05
3.42503e-05
3.41618e-05
3.40679e-05
3.39631e-05
3.38537e-05
3.37389e-05
3.36246e-05
3.35099e-05
3.34001e-05
3.32964e-05
3.32031e-05
3.31132e-05
3.30408e-05
3.29939e-05
3.29708e-05
3.29823e-05
3.30442e-05
3.3199e-05
3.35036e-05
3.40305e-05
3.47104e-05
3.02627e-05
9.06659e-05
8.9207e-05
8.86879e-05
8.77325e-05
8.69987e-05
8.59774e-05
8.51528e-05
8.41217e-05
8.32611e-05
8.22453e-05
8.13745e-05
8.03798e-05
7.95071e-05
7.85326e-05
7.76604e-05
7.67033e-05
7.58315e-05
7.4888e-05
7.40155e-05
7.30815e-05
7.22064e-05
7.12777e-05
7.03966e-05
6.94672e-05
6.858e-05
6.76374e-05
6.67452e-05
6.58031e-05
6.48881e-05
6.39349e-05
6.29983e-05
6.2028e-05
6.07561e-05
5.93498e-05
5.80055e-05
5.66493e-05
5.53554e-05
5.40531e-05
5.28166e-05
5.15748e-05
5.04029e-05
4.92265e-05
4.81226e-05
4.70163e-05
4.59845e-05
4.49477e-05
4.39857e-05
4.30192e-05
4.21291e-05
4.12352e-05
4.04181e-05
3.95979e-05
3.8854e-05
3.81072e-05
3.74347e-05
3.67601e-05
3.61568e-05
3.55522e-05
3.50113e-05
3.44675e-05
3.39812e-05
3.3493e-05
3.30478e-05
3.25985e-05
3.21861e-05
3.17616e-05
3.13723e-05
3.09644e-05
3.05847e-05
3.01827e-05
2.9807e-05
2.94259e-05
2.90577e-05
2.86801e-05
2.83082e-05
2.79328e-05
2.75636e-05
2.71964e-05
2.68362e-05
2.64763e-05
2.61213e-05
2.5768e-05
2.54235e-05
2.50795e-05
2.47421e-05
2.44028e-05
2.40737e-05
2.37452e-05
2.34326e-05
2.3125e-05
2.28257e-05
2.25183e-05
2.22526e-05
2.20116e-05
2.18084e-05
2.17575e-05
2.19143e-05
2.23139e-05
2.30329e-05
1.80001e-05
0.000106108
0.000104967
0.000104457
0.000103618
0.000102756
0.000101725
0.000100728
9.96148e-05
9.85575e-05
9.74134e-05
9.63314e-05
9.51725e-05
9.40736e-05
9.29056e-05
9.17926e-05
9.0618e-05
8.9493e-05
8.83136e-05
8.71787e-05
8.59966e-05
8.48543e-05
8.36738e-05
8.25249e-05
8.13479e-05
8.01968e-05
7.90238e-05
7.78743e-05
7.67095e-05
7.55655e-05
7.4411e-05
7.32766e-05
7.21386e-05
7.10156e-05
6.9884e-05
6.87725e-05
6.76541e-05
6.65531e-05
6.54522e-05
6.43662e-05
6.32803e-05
6.22072e-05
6.11343e-05
6.00716e-05
5.90045e-05
5.79549e-05
5.6908e-05
5.58646e-05
5.48291e-05
5.37977e-05
5.27733e-05
5.17538e-05
5.0741e-05
4.97336e-05
4.87329e-05
4.77385e-05
4.67531e-05
4.57772e-05
4.48129e-05
4.38601e-05
4.29231e-05
4.20028e-05
4.11009e-05
4.02144e-05
3.93445e-05
3.84395e-05
3.75578e-05
3.67297e-05
3.59272e-05
3.51651e-05
3.44311e-05
3.37209e-05
3.30355e-05
3.23688e-05
3.17061e-05
3.10658e-05
3.04371e-05
2.98049e-05
2.91786e-05
2.85692e-05
2.79588e-05
2.73496e-05
2.67246e-05
2.61043e-05
2.54794e-05
2.48654e-05
2.42248e-05
2.3585e-05
2.29222e-05
2.2276e-05
2.16218e-05
2.09879e-05
2.03572e-05
1.97673e-05
1.91841e-05
1.86617e-05
1.82644e-05
1.80793e-05
1.78958e-05
1.8659e-05
1.42848e-05
0.00012306
0.000122367
0.000121934
0.000121327
0.000120423
0.000119492
0.000118438
0.000117371
0.000116261
0.000115128
0.000113988
0.000112816
0.000111653
0.000110452
0.000109268
0.000108043
0.00010684
0.000105596
0.000104371
0.000103115
0.000101859
0.000100606
9.93396e-05
9.80681e-05
9.67938e-05
9.55137e-05
9.42307e-05
9.29347e-05
9.16363e-05
9.03234e-05
8.90095e-05
8.76831e-05
8.6353e-05
8.50062e-05
8.36579e-05
8.22913e-05
8.09232e-05
7.9546e-05
7.81697e-05
7.67851e-05
7.54026e-05
7.40169e-05
7.26351e-05
7.12543e-05
6.98812e-05
6.85137e-05
6.71576e-05
6.58117e-05
6.44814e-05
6.31654e-05
6.18689e-05
6.059e-05
5.93332e-05
5.80957e-05
5.6881e-05
5.56867e-05
5.45158e-05
5.33647e-05
5.223e-05
5.11155e-05
5.00295e-05
4.89423e-05
4.78868e-05
4.68347e-05
4.58029e-05
4.47733e-05
4.37543e-05
4.27343e-05
4.17192e-05
4.0701e-05
3.96818e-05
3.86565e-05
3.76275e-05
3.65949e-05
3.55604e-05
3.45219e-05
3.34789e-05
3.24319e-05
3.13901e-05
3.03535e-05
2.93189e-05
2.82812e-05
2.72394e-05
2.61974e-05
2.51588e-05
2.41188e-05
2.30825e-05
2.20512e-05
2.10318e-05
2.00197e-05
1.90152e-05
1.80559e-05
1.71694e-05
1.63555e-05
1.58229e-05
1.59545e-05
1.59842e-05
1.5792e-05
1.58266e-05
1.32255e-05
0.000136031
0.000135967
0.000135676
0.000135404
0.000134638
0.000133966
0.000133063
0.000132226
0.000131277
0.000130353
0.000129377
0.000128396
0.000127395
0.00012637
0.00012534
0.000124277
0.000123216
0.000122117
0.000121022
0.000119887
0.000118755
0.000117589
0.000116416
0.000115216
0.000114006
0.000112779
0.000111541
0.000110278
0.000109007
0.000107711
0.000106407
0.000105079
0.00010374
0.000102375
0.000101001
9.96047e-05
9.81958e-05
9.67617e-05
9.53213e-05
9.38719e-05
9.23925e-05
9.09074e-05
8.94014e-05
8.78849e-05
8.63526e-05
8.48089e-05
8.32527e-05
8.16862e-05
8.01111e-05
7.85283e-05
7.69412e-05
7.53506e-05
7.3761e-05
7.21724e-05
7.0591e-05
6.90131e-05
6.74414e-05
6.58754e-05
6.43193e-05
6.27719e-05
6.124e-05
5.97192e-05
5.822e-05
5.67366e-05
5.52759e-05
5.38324e-05
5.24112e-05
5.10071e-05
4.96246e-05
4.82596e-05
4.69149e-05
4.55868e-05
4.42762e-05
4.29807e-05
4.16999e-05
4.04249e-05
3.91619e-05
3.79047e-05
3.66439e-05
3.53882e-05
3.41231e-05
3.28367e-05
3.15283e-05
3.01927e-05
2.88331e-05
2.74318e-05
2.5984e-05
2.44925e-05
2.29788e-05
2.14329e-05
1.98423e-05
1.82161e-05
1.66163e-05
1.50577e-05
1.35977e-05
1.24955e-05
1.20336e-05
1.35113e-05
1.37263e-05
1.42081e-05
0.000133986
0.000133609
0.000133461
0.000133116
0.000132961
0.0001326
0.000132417
0.000132042
0.000131821
0.000131432
0.000131171
0.000130767
0.000130466
0.000130045
0.000129705
0.000129263
0.000128883
0.000128416
0.000127993
0.000127495
0.000127026
0.00012649
0.000125969
0.000125387
0.000124759
0.000123778
0.000122793
0.000121771
0.000120742
0.000119684
0.000118618
0.000117526
0.000116424
0.0001153
0.00011416
0.000112994
0.000111811
0.000110602
0.000109375
0.000108122
0.000106846
0.000105546
0.000104222
0.000102873
0.000101498
0.000100098
9.86714e-05
9.72187e-05
9.57403e-05
9.42353e-05
9.27059e-05
9.11507e-05
8.95735e-05
8.79648e-05
8.63468e-05
8.47178e-05
8.30592e-05
8.13859e-05
7.96978e-05
7.79902e-05
7.62719e-05
7.4533e-05
7.27808e-05
7.10039e-05
6.92132e-05
6.74012e-05
6.55739e-05
6.37282e-05
6.1869e-05
5.9994e-05
5.81078e-05
5.6214e-05
5.43147e-05
5.2416e-05
5.05226e-05
4.86404e-05
4.67742e-05
4.49281e-05
4.31065e-05
4.13139e-05
3.9554e-05
3.78264e-05
3.61281e-05
3.44524e-05
3.27942e-05
3.11333e-05
2.94848e-05
2.78464e-05
2.6152e-05
2.44482e-05
2.26746e-05
2.08401e-05
1.89074e-05
1.69075e-05
1.48324e-05
1.28549e-05
1.11032e-05
1.0055e-05
1.18002e-05
1.19803e-05
0.000111989
0.000112145
0.000112203
0.000112232
0.000112271
0.000112264
0.000112289
0.000112258
0.00011227
0.00011222
0.000112216
0.00011215
0.000112128
0.000112044
0.000112001
0.0001119
0.000111831
0.000111711
0.000111616
0.000111473
0.000111348
0.00011118
0.000111024
0.000110829
0.00011064
0.000110421
0.000110209
0.000109969
0.000109733
0.000109472
0.00010921
0.000108926
0.000108637
0.000108326
0.000108011
0.000107671
0.00010732
0.000106946
0.000106557
0.000106144
0.000105713
0.000105255
0.000104774
0.000104263
0.000103723
0.000103154
0.000102561
0.000101939
0.00010129
0.00010061
9.98908e-05
9.91275e-05
9.83146e-05
9.74424e-05
9.61738e-05
9.4768e-05
9.33122e-05
9.18214e-05
9.02922e-05
8.87272e-05
8.71317e-05
8.55077e-05
8.38627e-05
8.21941e-05
8.04882e-05
7.8752e-05
7.69663e-05
7.51528e-05
7.33145e-05
7.14292e-05
6.95062e-05
6.755e-05
6.555e-05
6.35098e-05
6.14203e-05
5.92864e-05
5.70974e-05
5.48567e-05
5.25575e-05
5.02016e-05
4.77888e-05
4.53231e-05
4.28112e-05
4.02619e-05
3.76887e-05
3.51088e-05
3.25438e-05
3.00182e-05
2.75531e-05
2.51654e-05
2.28326e-05
2.05567e-05
1.83359e-05
1.61139e-05
1.4002e-05
1.20133e-05
1.02338e-05
8.83985e-06
8.29699e-06
1.1205e-05
7.2528e-05
7.29082e-05
7.29818e-05
7.32097e-05
7.32879e-05
7.34728e-05
7.35656e-05
7.3723e-05
7.38289e-05
7.39677e-05
7.4082e-05
7.42079e-05
7.43259e-05
7.44423e-05
7.45601e-05
7.46686e-05
7.47833e-05
7.48847e-05
7.49939e-05
7.50884e-05
7.51905e-05
7.52783e-05
7.53729e-05
7.54544e-05
7.55419e-05
7.5619e-05
7.57008e-05
7.57728e-05
7.5848e-05
7.59138e-05
7.59808e-05
7.60386e-05
7.60952e-05
7.61426e-05
7.61869e-05
7.62241e-05
7.62579e-05
7.62841e-05
7.63059e-05
7.63197e-05
7.63281e-05
7.63282e-05
7.63221e-05
7.63079e-05
7.62874e-05
7.62579e-05
7.62172e-05
7.61636e-05
7.60955e-05
7.60099e-05
7.59046e-05
7.5777e-05
7.56255e-05
7.54483e-05
7.52471e-05
7.50329e-05
7.47941e-05
7.45363e-05
7.42487e-05
7.39296e-05
7.35675e-05
7.30134e-05
7.22787e-05
7.14915e-05
7.06603e-05
6.9785e-05
6.88627e-05
6.78916e-05
6.68678e-05
6.57874e-05
6.46414e-05
6.34215e-05
6.21243e-05
6.07693e-05
5.93007e-05
5.77551e-05
5.60971e-05
5.43428e-05
5.24769e-05
5.05032e-05
4.8419e-05
4.62261e-05
4.39285e-05
4.15304e-05
3.90401e-05
3.64646e-05
3.38013e-05
3.10533e-05
2.82137e-05
2.52919e-05
2.22993e-05
1.92996e-05
1.64547e-05
1.37992e-05
1.14912e-05
9.36399e-06
7.69213e-06
6.45199e-06
5.80573e-06
6.59668e-06
6.79895e-06
6.81363e-06
6.82187e-06
6.83457e-06
6.84555e-06
6.8604e-06
6.87199e-06
6.88787e-06
6.90026e-06
6.91665e-06
6.93e-06
6.94668e-06
6.96104e-06
6.97797e-06
6.99337e-06
7.01061e-06
7.02702e-06
7.04467e-06
7.0621e-06
7.08032e-06
7.09878e-06
7.11777e-06
7.13734e-06
7.15729e-06
7.17806e-06
7.19914e-06
7.22116e-06
7.24349e-06
7.26683e-06
7.29051e-06
7.31525e-06
7.34041e-06
7.36668e-06
7.39348e-06
7.42144e-06
7.45008e-06
7.47991e-06
7.51055e-06
7.54245e-06
7.57529e-06
7.60946e-06
7.64471e-06
7.68134e-06
7.71916e-06
7.75835e-06
7.79871e-06
7.84036e-06
7.88321e-06
7.92735e-06
7.97275e-06
8.01953e-06
8.06776e-06
8.11767e-06
8.16943e-06
8.22335e-06
8.27943e-06
8.33708e-06
8.39646e-06
8.45653e-06
8.51725e-06
8.57725e-06
8.63612e-06
8.69658e-06
8.76027e-06
8.82758e-06
8.89873e-06
8.97449e-06
9.05463e-06
9.14004e-06
9.23071e-06
9.32663e-06
9.4279e-06
9.5369e-06
9.6527e-06
9.77216e-06
9.90136e-06
1.0035e-05
1.01772e-05
1.03258e-05
1.04821e-05
1.06458e-05
1.08167e-05
1.09944e-05
1.11769e-05
1.13606e-05
1.15354e-05
1.16792e-05
1.17497e-05
1.16629e-05
1.12736e-05
1.02723e-05
8.78868e-06
6.87732e-06
4.80416e-06
3.2884e-06
2.36393e-06
2.36351e-06
3.79661e-06
3.96237e-06
4.27262e-06
1.06791e-05
2.08643e-06
2.71039e-06
3.73997e-06
4.93137e-06
6.10104e-06
7.04756e-06
7.87438e-06
8.72452e-06
9.40202e-06
1.00857e-05
1.06682e-05
1.13724e-05
1.2466e-05
1.42996e-05
1.65886e-05
1.65574e-05
1.43852e-05
9.83423e-06
3.70223e-06
5.74918e-06
2.2465e-06
2.62729e-06
3.4288e-06
4.41168e-06
5.31387e-06
6.16757e-06
7.08989e-06
7.86725e-06
8.69922e-06
9.51358e-06
1.02948e-05
1.13218e-05
1.2945e-05
1.51726e-05
1.70046e-05
1.63053e-05
1.33965e-05
9.20283e-06
3.63119e-06
4.91805e-06
2.83748e-06
3.11972e-06
3.72244e-06
4.43013e-06
5.15503e-06
5.99602e-06
6.70304e-06
7.53394e-06
8.50833e-06
9.37886e-06
1.02957e-05
1.16957e-05
1.37062e-05
1.6294e-05
1.7056e-05
1.58304e-05
1.26095e-05
8.68916e-06
3.49856e-06
5.21399e-06
3.68441e-06
3.92337e-06
4.25342e-06
4.75169e-06
5.37431e-06
5.96562e-06
6.75739e-06
7.75758e-06
9.04054e-06
1.00169e-05
1.1287e-05
1.32886e-05
1.5957e-05
1.76828e-05
1.74723e-05
1.49121e-05
1.18958e-05
8.04855e-06
2.94461e-06
5.95593e-06
4.79766e-06
4.95322e-06
4.96135e-06
5.50941e-06
5.84968e-06
6.55139e-06
7.56793e-06
8.95536e-06
1.09432e-05
1.25937e-05
1.42511e-05
1.68256e-05
1.86709e-05
1.90381e-05
1.6786e-05
1.4195e-05
1.15199e-05
7.20259e-06
2.20067e-06
7.15934e-06
6.20063e-06
6.25985e-06
6.09506e-06
6.71352e-06
7.34725e-06
8.53182e-06
1.02611e-05
1.33835e-05
1.63063e-05
1.80007e-05
1.96236e-05
2.11676e-05
2.06654e-05
1.82054e-05
1.59266e-05
1.37575e-05
1.11217e-05
6.09238e-06
1.50367e-06
9.05916e-06
8.49342e-06
8.58547e-06
8.75888e-06
9.95715e-06
1.18271e-05
1.46177e-05
1.87134e-05
2.48349e-05
2.61409e-05
2.60166e-05
2.38666e-05
2.14546e-05
1.94457e-05
1.7559e-05
1.56773e-05
1.35599e-05
1.0665e-05
4.80304e-06
9.03397e-07
1.36122e-05
1.44371e-05
1.52641e-05
1.71896e-05
2.0292e-05
2.43712e-05
2.95285e-05
3.14729e-05
2.89832e-05
2.72235e-05
2.51024e-05
2.34277e-05
2.15343e-05
1.97737e-05
1.76927e-05
1.57239e-05
1.30477e-05
9.57694e-06
3.90755e-06
4.89905e-07
2.96665e-05
3.25557e-05
3.3966e-05
3.62771e-05
4.08563e-05
3.92091e-05
3.76079e-05
3.44143e-05
3.28722e-05
3.00713e-05
2.83758e-05
2.58906e-05
2.37883e-05
2.0884e-05
1.81389e-05
1.42071e-05
1.16797e-05
8.38138e-06
3.63356e-06
3.00682e-07
5.0938e-05
5.38165e-05
5.43059e-05
5.49002e-05
5.14371e-05
4.83471e-05
4.52502e-05
4.20864e-05
3.9329e-05
3.59266e-05
3.3216e-05
2.9251e-05
2.63271e-05
2.01763e-05
1.48945e-05
1.10161e-05
9.54984e-06
7.32998e-06
3.438e-06
2.79775e-07
4.79898e-05
5.08519e-05
5.15563e-05
5.2724e-05
4.97439e-05
4.66574e-05
4.38957e-05
4.09121e-05
3.83966e-05
3.53214e-05
3.28705e-05
2.92565e-05
2.66576e-05
2.15562e-05
1.59887e-05
1.1942e-05
9.7152e-06
7.18207e-06
3.05124e-06
2.27988e-07
2.45416e-05
2.73378e-05
2.88243e-05
3.16301e-05
3.60393e-05
3.84444e-05
3.63032e-05
3.41092e-05
3.18798e-05
3.00247e-05
2.78905e-05
2.60844e-05
2.40827e-05
2.17241e-05
1.88478e-05
1.52269e-05
1.22467e-05
8.36572e-06
3.09424e-06
2.29688e-07
1.21007e-05
1.24891e-05
1.30527e-05
1.4566e-05
1.7276e-05
2.09777e-05
2.59352e-05
3.29762e-05
3.03097e-05
2.83378e-05
2.61341e-05
2.40265e-05
2.22042e-05
2.02916e-05
1.84781e-05
1.63642e-05
1.36624e-05
9.98588e-06
3.63366e-06
3.57598e-07
8.45528e-06
7.8275e-06
7.89354e-06
7.99436e-06
9.0216e-06
1.06326e-05
1.30702e-05
1.68754e-05
2.27699e-05
2.46246e-05
2.55582e-05
2.52856e-05
2.2743e-05
2.03412e-05
1.82429e-05
1.63507e-05
1.40811e-05
1.10953e-05
4.59754e-06
7.30712e-07
6.71612e-06
5.74648e-06
5.79545e-06
5.68601e-06
6.29096e-06
6.92896e-06
8.04028e-06
9.65547e-06
1.25943e-05
1.5632e-05
1.74816e-05
1.94788e-05
2.13761e-05
2.17933e-05
1.9111e-05
1.65613e-05
1.43175e-05
1.15376e-05
6.3378e-06
1.4193e-06
5.61956e-06
4.43412e-06
4.56868e-06
4.59153e-06
5.10769e-06
5.49102e-06
6.22869e-06
7.24326e-06
8.59982e-06
1.06508e-05
1.23555e-05
1.42708e-05
1.70231e-05
1.90883e-05
1.95558e-05
1.75322e-05
1.47576e-05
1.18882e-05
7.4731e-06
2.21316e-06
5.0263e-06
3.42498e-06
3.63068e-06
3.93437e-06
4.41245e-06
4.97552e-06
5.61526e-06
6.42714e-06
7.42388e-06
8.78887e-06
9.81006e-06
1.12779e-05
1.34746e-05
1.62967e-05
1.8228e-05
1.80459e-05
1.55003e-05
1.23419e-05
8.29667e-06
3.05377e-06
4.99103e-06
2.70813e-06
2.92166e-06
3.45554e-06
4.12224e-06
4.81456e-06
5.54081e-06
6.29653e-06
7.131e-06
8.10328e-06
9.04261e-06
1.00933e-05
1.17366e-05
1.39069e-05
1.66631e-05
1.74986e-05
1.6264e-05
1.30323e-05
8.95515e-06
3.65819e-06
6.03073e-06
2.20011e-06
2.5151e-06
3.23308e-06
4.10589e-06
5.02429e-06
5.83826e-06
6.64305e-06
7.45997e-06
8.28553e-06
9.06334e-06
9.93064e-06
1.11202e-05
1.29693e-05
1.54101e-05
1.7389e-05
1.66941e-05
1.37708e-05
9.49112e-06
3.82154e-06
1.08365e-05
2.0824e-06
2.63033e-06
3.58011e-06
4.62109e-06
5.66935e-06
6.67989e-06
7.45463e-06
8.23802e-06
8.98079e-06
9.64603e-06
1.02709e-05
1.10591e-05
1.2249e-05
1.42824e-05
1.68266e-05
1.69104e-05
1.47459e-05
1.01133e-05
3.88883e-06
1.23422e-06
0.00011656
0.000294186
0.000330906
0.00033481
0.000335356
0.000335357
0.000335342
0.000335343
0.000335345
0.000335345
0.000335343
0.000335342
0.000335357
0.000335356
0.00033481
0.000330906
0.000294187
0.00011656
1.23422e-06
1.36976e-06
6.81637e-05
0.000219575
0.000309499
0.000330908
0.000334527
0.000335273
0.000335315
0.000335296
0.000335287
0.000335287
0.000335296
0.000335315
0.000335273
0.000334527
0.000330908
0.000309499
0.000219575
6.81638e-05
1.36976e-06
1.51331e-06
5.29001e-05
0.000176469
0.000280587
0.00032215
0.000332504
0.000334604
0.0003351
0.000335168
0.000335172