/*--------------------------------*- C++ -*----------------------------------*\
| =========                 |                                                 |
| \\      /  F ield         | OpenFOAM: The Open Source CFD Toolbox           |
|  \\    /   O peration     | Version:  2.1.0                                 |
|   \\  /    A nd           | Web:      www.OpenFOAM.org                      |
|    \\/     M anipulation  |                                                 |
\*---------------------------------------------------------------------------*/
FoamFile
{
    version     2.0;
    format      ascii;
    class       volScalarField;
    location    "0.22";
    object      omega;
}
// * * * * * * * * * * * * * * * * * * * * * * * * * * * * * * * * * * * * * //

dimensions      [0 0 -1 0 0 0 0];

internalField   nonuniform List<scalar> 
6400
(
1571.14
1571.67
1571.4
1570.89
1570.08
1569.48
1568.46
1567.81
1566.7
1565.97
1564.84
1564.02
1562.86
1561.95
1560.78
1559.78
1558.6
1557.51
1556.32
1555.16
1553.95
1552.75
1551.52
1550.27
1549.02
1547.72
1546.44
1545.1
1543.77
1542.39
1541.02
1539.58
1538.15
1536.66
1535.17
1533.61
1532.03
1530.38
1528.69
1526.9
1525.03
1523.04
1520.94
1518.68
1516.26
1513.65
1510.84
1507.79
1504.5
1500.92
1497
1492.64
1487.92
1483.1
1477.92
1472.59
1466.93
1461.04
1454.87
1448.45
1441.74
1434.77
1427.45
1419.84
1411.85
1403.51
1394.74
1385.47
1375.77
1365.48
1354.67
1343.27
1331.26
1318.68
1305.48
1291.75
1277.48
1262.77
1247.65
1232.21
1216.43
1200.25
1183.47
1165.87
1146.89
1126.74
1104.6
1079.77
1050.85
1015.97
972.269
914.644
835.189
725.811
584.594
505.643
542.068
716.011
876.023
925.264
663.12
663.178
664.279
665.096
666.336
667.547
668.828
670.236
671.57
673.097
674.504
676.117
677.611
679.297
680.887
682.645
684.336
686.17
687.968
689.888
691.802
693.825
695.868
698.015
700.205
702.494
704.844
707.292
709.82
712.449
715.176
718.015
720.973
724.061
727.265
730.602
734.074
737.688
741.451
745.364
749.441
753.685
758.109
762.72
767.527
772.538
777.763
783.21
788.892
794.808
800.943
807.316
813.939
820.908
828.152
835.758
843.688
852.006
860.704
869.832
879.397
889.442
899.988
911.083
922.751
934.868
947.454
960.74
974.671
989.341
1004.77
1021.03
1038.17
1056.26
1075.35
1095.55
1116.94
1139.62
1163.72
1189.42
1216.4
1244.03
1273.12
1302.89
1333.23
1363.47
1393
1421.04
1446.74
1469.19
1486.91
1495.61
1497.98
1486.48
1452.75
1375.64
1264.38
1131.13
987.097
831.984
486.274
489.246
490.663
493.554
495.479
498.411
500.654
503.631
506.114
509.155
511.85
514.979
517.873
521.112
524.2
527.569
530.852
534.367
537.848
541.525
545.209
549.066
552.956
557.004
561.114
565.372
569.714
574.201
578.79
583.524
588.375
593.371
598.495
603.764
609.211
614.831
620.645
626.659
632.89
639.331
645.977
652.838
659.926
667.27
674.87
682.744
690.895
699.334
708.061
717.086
726.429
736.09
746.097
756.472
767.219
778.364
789.911
801.886
814.293
827.151
840.464
854.242
868.483
883.19
898.354
914.027
930.2
946.657
963.459
980.485
997.732
1015.12
1032.61
1050.17
1067.76
1085.36
1102.97
1120.59
1138.23
1155.91
1173.64
1191.45
1209.37
1227.35
1245.31
1263.14
1280.59
1297.28
1312.58
1325.5
1332.54
1335.07
1329.01
1305.2
1260.16
1184.25
1078.28
939.322
779.985
616.274
444.592
449.404
451.528
455.75
458.433
462.623
465.707
469.898
473.314
477.555
481.264
485.599
489.58
494.046
498.291
502.92
507.425
512.244
517.01
522.039
527.067
532.32
537.61
543.101
548.661
554.407
560.247
566.266
572.398
578.708
585.148
591.767
598.533
605.482
612.577
619.849
627.275
634.873
642.626
650.562
658.686
667.009
675.513
684.178
693.01
701.996
711.134
720.417
729.836
739.386
749.063
758.854
768.761
778.776
788.895
799.108
809.413
819.79
830.24
840.741
851.289
861.861
872.445
883.014
893.543
904.071
914.53
924.92
935.198
945.334
955.3
965.028
974.458
983.564
992.223
1000.41
1007.99
1014.91
1021.03
1026.27
1030.48
1033.4
1034.8
1035.24
1033.84
1030.32
1024.68
1016.4
1005.14
990.308
971.221
946.987
916.246
877.393
828.421
766.953
694.519
615.695
543.126
491.69
440.801
446.683
449.234
454.321
457.515
462.54
466.186
471.178
475.183
480.187
484.494
489.549
494.121
499.258
504.067
509.31
514.337
519.701
524.931
530.425
535.845
541.475
547.076
552.847
558.616
564.527
570.453
576.5
582.575
588.754
594.967
601.264
607.596
613.998
620.43
626.916
633.428
639.978
646.546
653.137
659.733
666.332
672.922
679.509
686.076
692.624
699.139
705.621
712.059
718.454
724.795
731.075
737.28
743.394
749.403
755.287
761.074
766.691
772.145
777.384
782.389
787.116
791.533
795.598
799.269
802.505
805.255
807.481
809.129
809.975
810.304
810.23
808.89
807.18
804.287
800.799
796.18
790.795
784.315
776.96
768.537
759.185
748.837
737.587
725.361
712.263
698.31
683.502
667.844
651.251
633.652
614.859
594.435
571.902
546.207
518.209
488.185
461.068
442.234
432.913
439.198
444.857
447.287
452.142
455.135
459.893
463.255
467.913
471.538
476.121
479.943
484.474
488.447
492.946
497.033
501.512
505.686
510.151
514.388
518.842
523.126
527.569
531.887
536.32
540.657
545.073
549.406
553.791
558.099
562.447
566.753
571.072
575.337
579.59
583.773
587.92
591.98
595.979
599.878
603.688
607.371
610.946
614.369
617.661
620.775
623.73
626.48
629.041
631.367
633.469
635.301
636.871
638.133
639.09
639.634
639.872
639.934
639.584
638.815
637.664
636.027
633.96
631.373
628.313
624.719
620.633
616.02
610.92
605.329
599.287
592.832
585.98
578.797
571.348
563.627
555.763
547.727
539.658
531.528
523.48
515.516
507.748
500.168
492.845
485.77
478.954
472.291
465.778
459.472
453.226
447.031
440.716
434.171
427.279
419.898
412.691
406.441
403.642
403.076
403.372
418.193
422.567
424.421
428.132
430.341
433.959
436.373
439.869
442.405
445.776
448.381
451.63
454.264
457.393
460.023
463.033
465.631
468.513
471.057
473.801
476.268
478.86
481.217
483.646
485.863
488.106
490.116
492.119
493.888
495.646
497.223
498.741
500.046
501.254
502.222
503.061
503.639
503.999
504.147
504.17
503.812
503.316
502.465
501.449
500.082
498.529
496.627
494.525
492.079
489.426
486.44
483.248
479.742
476.058
472.109
468.01
463.627
459.097
454.346
449.493
444.481
439.425
434.28
429.155
424.009
418.946
413.97
409.148
404.477
400.031
395.784
391.816
388.072
384.651
381.499
378.699
376.21
374.069
372.233
370.743
369.576
368.719
368.183
367.929
367.849
367.988
368.402
368.871
369.564
370.207
371.018
371.775
372.679
373.739
375.276
378.035
381.095
386.604
390.159
391.146
377.307
380.138
381.29
383.563
384.77
386.905
388.08
390.026
391.113
392.84
393.799
395.287
396.087
397.318
397.932
398.858
399.305
399.884
400.148
400.331
400.378
400.307
399.965
399.577
398.881
398.142
397.068
395.955
394.502
392.991
391.091
389.126
386.789
384.387
381.637
378.825
375.706
372.538
369.104
365.634
361.93
358.226
354.327
350.464
346.452
342.515
338.483
334.567
330.612
326.816
323.045
319.461
315.97
312.705
309.576
306.702
304.014
301.608
299.456
297.605
296.038
294.787
293.83
293.225
292.94
292.849
293.035
293.627
294.334
295.467
296.676
298.286
299.989
302.036
304.209
306.668
309.27
312.121
315.13
318.344
321.707
325.237
328.905
332.695
336.606
340.601
344.685
348.813
352.996
357.199
361.461
365.768
370.213
374.84
379.801
385.463
391.898
399.111
403.608
405.078
316.836
317.305
317.417
317.485
317.428
317.278
316.88
316.507
315.766
315.127
314.05
313.121
311.715
310.481
308.758
307.218
305.196
303.351
301.056
298.917
296.383
293.972
291.22
288.583
285.652
282.843
279.819
276.916
273.851
270.906
267.867
264.965
262.026
259.24
256.476
253.874
251.34
248.976
246.729
244.662
242.752
241.033
239.503
238.176
237.06
236.155
235.479
235.056
234.863
234.812
235.056
235.54
236.235
237.16
238.282
239.633
241.172
242.935
244.877
247.036
249.368
251.908
254.617
257.529
260.607
263.881
267.321
270.955
274.75
278.749
282.906
287.276
291.811
296.565
301.496
306.651
312
317.589
323.382
329.42
335.68
342.187
348.93
355.92
363.138
370.584
378.237
386.082
394.09
402.233
410.479
418.813
427.219
435.729
444.396
453.408
463.187
474.386
484.951
490.202
237.575
235.303
234.337
232.357
231.183
229.146
227.806
225.731
224.264
222.176
220.624
218.55
216.955
214.925
213.329
211.374
209.818
207.969
206.493
204.783
203.424
201.884
200.68
199.341
198.324
197.216
196.416
195.563
195.006
194.43
194.124
193.868
193.769
193.747
193.919
194.187
194.626
195.16
195.866
196.666
197.634
198.693
199.916
201.229
202.703
204.265
205.983
207.789
209.744
211.788
213.981
216.265
218.691
221.207
223.86
226.609
229.492
232.478
235.595
238.824
242.185
245.667
249.285
253.033
256.923
260.955
265.136
269.473
273.97
278.637
283.48
288.512
293.736
299.17
304.817
310.699
316.82
323.197
329.845
336.785
344.028
351.602
359.52
367.813
376.509
385.642
395.245
405.371
416.057
427.371
439.361
452.123
465.727
480.297
495.932
512.74
530.634
548.947
563.932
570.65
255.695
253.986
253.228
251.65
250.64
248.959
247.718
245.917
244.474
242.553
240.935
238.917
237.156
235.072
233.208
231.091
229.166
227.052
225.114
223.043
221.142
219.153
217.338
215.475
213.794
212.097
210.595
209.103
207.821
206.569
205.544
204.566
203.824
203.148
202.711
202.393
202.255
202.217
202.386
202.718
203.215
203.857
204.662
205.606
206.713
207.952
209.35
210.873
212.553
214.349
216.298
218.358
220.566
222.878
225.342
227.907
230.617
233.43
236.381
239.443
242.637
245.953
249.396
252.973
256.681
260.532
264.52
268.664
272.953
277.411
282.026
286.819
291.783
296.944
302.293
307.858
313.633
319.645
325.891
332.398
339.17
346.235
353.601
361.299
369.344
377.77
386.597
395.856
405.587
415.875
426.731
438.261
450.512
463.618
477.696
492.94
509.478
526.999
542.014
548.902
331.949
333.248
333.726
334.57
334.967
335.573
335.845
336.15
336.256
336.294
336.072
335.831
335.239
334.714
333.764
332.925
331.624
330.458
328.812
327.311
325.33
323.499
321.198
319.05
316.453
314.005
311.157
308.436
305.366
302.424
299.188
296.083
292.743
289.573
286.242
283.089
279.841
276.779
273.698
270.806
267.966
265.331
262.801
260.492
258.338
256.42
254.699
253.224
251.975
250.98
250.228
249.764
249.551
249.492
249.731
250.238
250.935
251.902
253.022
254.41
255.926
257.7
259.579
261.703
263.922
266.365
268.901
271.638
274.468
277.482
280.585
283.872
287.258
290.805
294.457
298.255
302.165
306.211
310.372
314.659
319.063
323.591
328.239
332.999
337.871
342.861
347.975
353.229
358.62
364.14
369.821
375.715
381.834
388.3
395.247
403.009
412.027
422.513
433.414
439.225
384.825
388.096
389.443
392.105
393.577
396.115
397.629
400
401.516
403.73
405.23
407.273
408.705
410.564
411.885
413.54
414.714
416.146
417.139
418.326
419.104
420.026
420.558
421.167
421.46
421.659
421.716
421.639
421.285
420.848
420.114
419.285
418.144
416.889
415.316
413.625
411.617
409.433
406.933
404.273
401.311
398.222
394.864
391.41
387.732
383.982
380.053
376.108
372.03
367.995
363.884
359.872
355.845
351.969
348.142
344.511
340.994
337.729
334.628
331.8
329.16
326.796
324.646
322.768
321.125
319.743
318.595
317.711
317.033
316.637
316.447
316.394
316.587
316.954
317.523
318.202
319.088
320.052
321.203
322.396
323.737
325.099
326.593
328.17
329.92
331.761
333.77
335.911
338.229
340.744
343.432
346.355
349.375
352.703
356.378
360.723
365.902
372.469
376.733
378.098
419.297
423.872
425.812
429.687
432.013
435.791
438.352
442.01
444.726
448.296
451.144
454.636
457.569
460.99
463.972
467.322
470.324
473.602
476.595
479.794
482.754
485.866
488.769
491.78
494.603
497.493
500.217
502.962
505.552
508.131
510.553
512.936
515.157
517.283
519.224
521.043
522.674
524.243
525.593
526.824
527.805
528.622
529.156
529.42
529.507
529.351
528.81
528.073
526.954
525.607
523.884
521.911
519.571
516.974
514.025
510.825
507.298
503.54
499.491
495.268
490.822
486.232
481.471
476.595
471.609
466.569
461.475
456.393
451.316
446.304
441.338
436.505
431.795
427.286
422.962
418.858
414.97
411.33
407.887
404.642
401.566
398.619
395.804
393.041
390.312
387.612
384.89
382.144
379.367
376.557
373.756
370.988
368.491
365.935
364.107
363.264
363.147
366.745
369.567
370.38
433.695
439.265
441.656
446.429
449.39
454.078
457.421
462.031
465.656
470.217
474.062
478.6
482.621
487.155
491.317
495.86
500.136
504.697
509.066
513.648
518.091
522.695
527.196
531.819
536.364
541.003
545.585
550.236
554.841
559.492
564.102
568.741
573.341
577.949
582.516
587.072
591.581
596.098
600.554
604.985
609.335
613.632
617.824
621.933
625.917
629.78
633.486
637.044
640.411
643.597
646.56
649.305
651.793
654.026
655.965
657.609
658.92
659.894
660.394
660.591
660.591
659.876
659.064
657.7
656.076
653.956
651.49
648.563
645.257
641.521
637.407
632.889
627.994
622.719
617.084
611.102
604.784
598.119
591.176
583.949
576.41
568.549
560.35
551.79
542.832
533.43
523.561
513.228
502.347
490.776
478.386
465.361
451.723
437.771
423.116
409.324
396.951
389.314
385.784
384.056
431.614
437.149
439.549
444.319
447.328
452.045
455.484
460.173
463.948
468.649
472.709
477.466
481.783
486.63
491.185
496.152
500.929
506.024
511.008
516.245
521.425
526.812
532.182
537.724
543.277
548.974
554.705
560.56
566.459
572.469
578.531
584.693
590.912
597.221
603.587
610.033
616.537
623.111
629.735
636.42
643.145
649.92
656.725
663.568
670.43
677.314
684.204
691.096
697.971
704.821
711.643
718.435
725.184
731.886
738.53
745.115
751.624
758.049
764.372
770.585
776.662
782.571
788.346
793.908
799.281
804.389
809.24
813.773
817.982
821.816
825.261
828.274
830.827
832.869
834.345
835.077
835.34
834.976
833.59
831.419
828.183
823.801
818.147
810.985
802.198
791.482
778.708
763.537
745.929
725.586
702.249
675.634
645.309
611.964
574.88
536.096
496.369
460.019
433.142
416.3
434.859
439.267
441.217
445.085
447.542
451.368
454.19
458.017
461.142
465.016
468.408
472.361
475.992
480.057
483.916
488.115
492.2
496.564
500.88
505.433
509.986
514.747
519.546
524.531
529.581
534.8
540.108
545.576
551.15
556.884
562.741
568.762
574.923
581.255
587.745
594.401
601.222
608.217
615.382
622.727
630.249
637.952
645.833
653.894
662.125
670.552
679.185
688.029
697.093
706.394
715.881
725.554
735.402
745.424
755.606
765.947
776.428
787.047
797.792
808.658
819.639
830.732
841.938
853.247
864.66
876.157
887.733
899.361
911.023
922.675
934.381
946.095
957.827
969.529
981.193
992.765
1004.22
1015.48
1026.46
1037.06
1047.14
1056.53
1065.03
1072.33
1078.11
1081.19
1082.36
1081.31
1074.71
1064.27
1046.83
1022.47
988.192
943.373
885.132
813.458
728.702
635.514
551.445
486.014
476.797
479.411
480.671
483.26
484.983
487.62
489.625
492.301
494.522
497.252
499.661
502.465
505.05
507.947
510.703
513.711
516.64
519.776
522.878
526.157
529.438
532.873
536.339
539.944
543.602
547.392
551.248
555.231
559.299
563.492
567.784
572.2
576.724
581.371
586.128
591.049
596.111
601.343
606.738
612.319
618.088
624.063
630.254
636.682
643.364
650.295
657.473
664.913
672.618
680.589
688.871
697.479
706.428
715.727
725.385
735.427
745.859
756.705
767.979
779.707
791.909
804.613
817.851
831.646
846.017
860.984
876.561
892.764
909.61
927.118
945.27
963.863
983.032
1002.61
1022.62
1042.96
1063.61
1084.5
1105.61
1126.91
1148.38
1170.02
1191.79
1213.65
1235.59
1257.58
1279.45
1300.65
1320.38
1337.56
1347.44
1351.07
1343.87
1313.45
1263.22
1188.36
1087.2
959.678
801.457
627.409
652.673
652.564
653.427
654.108
655.114
656.15
657.207
658.42
659.535
660.852
662.04
663.432
664.704
666.161
667.522
669.042
670.496
672.081
673.63
675.286
676.931
678.665
680.41
682.233
684.088
686.017
687.993
690.049
692.167
694.367
696.643
699.007
701.462
704.02
706.69
709.455
712.334
715.324
718.438
721.679
725.056
728.575
732.246
736.074
740.066
744.227
748.566
753.093
757.817
762.75
767.908
773.3
778.943
784.851
791.046
797.521
804.304
811.408
818.849
826.647
834.807
843.348
852.342
861.832
871.833
882.379
893.504
905.238
917.618
930.666
944.28
958.759
974.036
990.219
1007.33
1025.48
1044.71
1065.12
1086.78
1109.79
1134.24
1160.23
1187.83
1217.11
1248.03
1279.61
1311.29
1341.41
1367.93
1387.24
1396.3
1398.63
1391.67
1376.5
1347.37
1295.08
1214.64
1109.83
990.76
842.921
1557.96
1558.4
1557.96
1557.44
1556.53
1555.89
1554.79
1554.08
1552.93
1552.14
1550.97
1550.1
1548.92
1547.97
1546.79
1545.75
1544.56
1543.44
1542.24
1541.05
1539.82
1538.57
1537.32
1536.03
1534.76
1533.44
1532.14
1530.79
1529.46
1528.08
1526.72
1525.3
1523.9
1522.46
1521.02
1519.54
1518.07
1516.55
1515.04
1513.49
1511.93
1510.33
1508.72
1507.07
1505.38
1503.63
1501.81
1499.92
1497.95
1495.87
1493.69
1491.41
1489.01
1486.51
1483.91
1481.19
1478.3
1475.21
1471.83
1468.12
1463.95
1459.25
1454.23
1448.97
1443.49
1437.73
1431.72
1425.38
1418.71
1411.64
1404.09
1395.97
1387.37
1378.11
1367.88
1356.95
1344.88
1331.78
1317.41
1301.69
1284.47
1265.6
1244.93
1222.22
1197.21
1169.38
1137.81
1101.03
1056.43
999.953
925.277
832.543
732.702
630.908
554.653
510.325
536.522
707.379
877.165
930.924
851.139
322.459
175.868
119.882
95.5344
81.7769
73.4831
70.3588
69.1451
69.2774
74.924
86.4456
106.831
141.082
194.821
266.248
352.301
456.093
560.176
586.775
683.006
327.917
219.09
154.528
121.485
101.918
91.2776
84.3869
81.5647
81.1538
89.5534
104.164
129.549
170.227
227.328
298.627
379.572
471.728
538.334
543.896
539.504
319.304
244.605
181.517
147.624
124.163
108.769
101.331
98.7585
99.9886
110.549
128.658
159.091
203.76
262.358
327.714
396.623
470.555
505.716
499.478
444.216
306.868
258.177
198.105
170.24
143.358
129.594
122.686
120.271
120.871
136.935
160.08
196.364
244.992
299.378
356.135
416.424
458.785
467.754
457.453
390.571
302.219
267.568
214.324
190.786
164.204
152.367
146.483
144.711
153.636
177.436
204.203
244.163
287.073
331.889
377.084
415.005
431.978
420.583
419.009
360.614
299.6
272.673
227.835
208.688
189.997
183.461
181.52
189.334
206.864
230.92
257.689
292.266
325.428
359.126
387.839
402.066
394.333
364.982
385.189
348.706
307.034
288.183
258.51
247.1
241.551
240.561
246.767
258.562
275.018
294.346
315.005
338.767
357.241
372.898
379.975
375.285
341.947
301.742
357.864
371.236
353.49
346.629
337.47
333.787
331.858
331.132
334.996
340.484
348.587
355.793
363.78
367.935
369.321
368.682
359.215
329.859
279.25
237.076
340.041
479.857
468.587
463.111
446.052
438.422
427.147
421.534
413.971
409.292
402.799
396.62
388.63
377.99
365.826
349.182
315.238
271.245
214.889
177.669
332.158
556.1
536.376
527.687
506.586
496.486
478.627
468.49
452.134
441.02
424.753
410.913
392.058
371.936
344.215
306.087
259.834
210.793
161.212
135.609
331.288
537.342
519.613
512.072
493.379
484.5
469.454
461.137
447.921
438.763
425.625
413.908
398.268
380.963
356.634
321.018
273.42
220.729
163.12
131.83
329.168
432.228
425.371
422.662
412.076
406.936
401.478
399.029
397.904
397.474
397.256
395.633
392.79
385.79
376.038
363.633
333.65
286.765
223.205
180.917
329.243
344.474
323.691
315.289
305.148
302.631
302.189
304.901
312.655
322.52
335.658
348.133
362.186
372.614
377.551
379.056
373.253
346.884
293.791
246.023
334.516
331.014
290.47
272.143
242.539
230.723
224.355
223.321
230.671
243.672
262.813
284.259
309.235
337.218
361.488
382.096
391.159
391.042
358.95
315.426
350.334
343.129
284.46
258.635
216.964
199.23
181.506
175.045
173.031
180.788
199.724
224.394
252.926
289.366
324.917
363.69
397.866
414.617
411.367
380.827
381.259
371.979
286.692
253.201
203.104
181.016
157.253
146.745
141.667
140.261
150.272
174.053
202.32
242.785
286.727
333.068
381.432
425.739
446.704
435.237
419.648
427.083
292.364
244.653
187.84
161.3
136.482
124.354
118.582
116.843
119.796
135.694
159.877
197.098
245.454
300.969
359.128
422.604
470.407
482.902
463.301
528.033
306.481
232.537
172.624
140.712
118.544
104.452
97.9929
95.8987
98.3948
110.609
129.28
161.164
205.674
263.67
329.292
400.202
479.763
518.964
510.396
682.429
316.161
210.197
147.015
115.677
97.8755
87.5159
82.0716
80.0387
80.5547
89.2962
105.22
131.988
173.396
230.311
300.342
381.61
477.488
550.659
558.433
857.147
311.606
170.277
115.551
91.6146
78.8256
70.899
67.9477
67.0664
69.3256
75.8468
87.3362
109.545
144.397
198.31
268.78
353.412
458.004
570.04
602.89
646.055
32.174
12.7361
11.3229
11.19
11.171
11.1705
11.1708
11.1706
11.1705
11.1705
11.1706
11.1708
11.1705
11.171
11.19
11.3229
12.7361
32.174
646.055
672.746
55.0655
17.0393
12.0871
11.3039
11.1803
11.1547
11.1529
11.1534
11.1536
11.1536
11.1534
11.1529
11.1547
11.1803
11.3039
12.0871
17.0393
55.0654
672.746
698.44
71.0884
21.1531
13.3029
11.5873
11.2261
11.1551
11.1382
11.1358
11.1355
11.1355
11.1358
11.1382
11.1551
11.2261
11.5873
13.3029
21.1531
71.0882
698.44
723.131
85.847
25.1361
14.6459
12.043
11.3371
11.1684
11.1265
11.1183
11.1171
11.1171
11.1183
11.1265
11.1684
11.3371
12.043
14.6459
25.1361
85.8469
723.131
746.759
101.878
29.2087
16.0665
12.5887
11.5235
11.2064
11.1273
11.105
11.1003
11.1003
11.105
11.1273
11.2064
11.5235
12.5887
16.0665
29.2087
101.878
746.759
769.317
118.439
33.3685
17.541
13.1973
11.7625
11.283
11.1366
11.0944
11.0843
11.0843
11.0944
11.1366
11.283
11.7625
13.1973
17.541
33.3685
118.439
769.317
790.713
134.956
37.5653
19.0504
13.8499
12.043
11.3871
11.16
11.0918
11.0718
11.0718
11.0918
11.16
11.3871
12.043
13.8499
19.0505
37.5653
134.956
790.713
810.974
151.243
41.778
20.5844
14.5349
12.3569
11.5177
11.203
11.0955
11.0625
11.0625
11.0955
11.203
11.5177
12.3569
14.5349
20.5844
41.778
151.243
810.975
829.966
167.086
45.9705
22.1306
15.2423
12.6969
11.6708
11.2604
11.1065
11.0594
11.0594
11.1065
11.2604
11.6708
12.6969
15.2424
22.1307
45.9706
167.087
829.966
847.662
182.411
50.1233
23.6805
15.9651
13.057
11.8431
11.3325
11.1291
11.0619
11.0619
11.1291
11.3325
11.8431
13.057
15.9651
23.6805
50.1234
182.411
847.662
863.984
197.092
54.2102
25.2248
16.6969
13.4322
12.0315
11.4179
11.1609
11.0698
11.0698
11.1609
11.4179
12.0315
13.4322
16.6969
25.2249
54.2104
197.092
863.984
879.006
211.148
58.23
26.7611
17.4344
13.8191
12.2334
11.5156
11.2021
11.0862
11.0862
11.2021
11.5156
12.2334
13.8191
17.4344
26.7612
58.2302
211.148
879.005
892.665
224.49
62.1644
28.2841
18.1743
14.2148
12.4466
11.6242
11.2528
11.1113
11.1113
11.2528
11.6242
12.4466
14.2148
18.1743
28.2841
62.1646
224.491
892.665
905.031
237.124
66.0101
29.791
18.9142
14.617
12.6691
11.7427
11.3126
11.1446
11.1446
11.3126
11.7427
12.6691
14.617
18.9142
29.7911
66.0103
237.124
905.031
916.067
248.972
69.7467
31.2758
19.6508
15.0232
12.8991
11.8699
11.381
11.1861
11.1861
11.381
11.8699
12.8991
15.0232
19.6509
31.2759
69.7469
248.972
916.067
925.902
260.089
73.3776
32.7378
20.383
15.4319
13.1352
12.0048
11.4576
11.2357
11.2357
11.4576
12.0048
13.1352
15.4319
20.383
32.7378
73.3778
260.089
925.902
934.513
270.422
76.89
34.1731
21.1087
15.8417
13.3761
12.1465
11.5417
11.293
11.293
11.5417
12.1465
13.3761
15.8417
21.1087
34.1732
76.8901
270.421
934.512
942.039
280.036
80.289
35.5823
21.8275
16.2518
13.6211
12.2944
11.633
11.3579
11.3579
11.633
12.2944
13.6211
16.2518
21.8275
35.5824
80.2891
280.036
942.038
948.452
288.888
83.561
36.961
22.5375
16.661
13.8691
12.4475
11.7309
11.4299
11.4299
11.7309
12.4475
13.8691
16.661
22.5375
36.961
83.561
288.887
948.451
953.925
297.053
86.7125
38.3098
23.2383
17.0685
14.1194
12.6053
11.8348
11.5085
11.5085
11.8348
12.6053
14.1194
17.0686
23.2384
38.3098
86.7126
297.053
953.924
958.416
304.504
89.7342
39.6251
23.9283
17.4735
14.3712
12.7671
11.9442
11.5934
11.5934
11.9442
12.7671
14.3712
17.4735
23.9284
39.6251
89.7342
304.504
958.415
962.121
311.326
92.6349
40.9089
24.6079
17.8756
14.6241
12.9325
12.0587
11.684
11.684
12.0587
12.9325
14.6241
17.8756
24.6079
40.909
92.635
311.326
962.12
964.967
317.504
95.4077
42.158
25.2755
18.2741
14.8776
13.1009
12.1777
11.78
11.78
12.1777
13.1009
14.8776
18.2741
25.2755
42.158
95.4077
317.503
964.966
967.18
323.105
98.0616
43.3749
25.9317
18.669
15.1313
13.2719
12.3009
11.8808
11.8808
12.3009
13.2719
15.1313
18.669
25.9317
43.3749
98.0616
323.105
967.18
968.649
328.146
100.59
44.5556
26.575
19.0593
15.3846
13.445
12.4277
11.9862
11.9862
12.4277
13.445
15.3846
19.0593
26.575
44.5556
100.59
328.146
968.648
969.635
332.656
103.005
45.7042
27.2063
19.4452
15.6374
13.62
12.5579
12.0955
12.0955
12.5579
13.62
15.6374
19.4452
27.2063
45.7041
103.004
332.656
969.634
969.97
336.702
105.3
46.8163
27.824
19.8261
15.8892
13.7964
12.691
12.2085
12.2085
12.691
13.7964
15.8892
19.8261
27.824
46.8163
105.3
336.702
969.969
969.834
340.246
107.487
47.897
28.4295
20.202
16.1399
13.974
12.8267
12.3248
12.3248
12.8267
13.974
16.1399
20.202
28.4294
47.8969
107.487
340.244
969.833
969.425
343.398
109.562
48.942
29.0213
20.5726
16.3892
14.1525
12.9646
12.4441
12.4441
12.9646
14.1525
16.3892
20.5725
29.0212
48.9418
109.561
343.398
969.424
968.579
346.145
111.538
49.9565
29.6006
20.9379
16.637
14.3316
13.1045
12.5659
12.5659
13.1045
14.3316
16.6369
20.9378
29.6005
49.9563
111.538
346.143
968.579
967.379
348.532
113.407
50.9357
30.166
21.2973
16.8828
14.5111
13.2461
12.69
12.69
13.2461
14.511
16.8828
21.2973
30.1659
50.9355
113.406
348.531
967.379
965.891
350.554
115.187
51.8866
30.7194
21.6514
17.1267
14.6907
13.389
12.8161
12.8161
13.389
14.6906
17.1267
21.6514
30.7192
51.8863
115.186
350.554
965.891
964.156
352.261
116.865
52.8036
31.259
21.9996
17.3685
14.8702
13.5331
12.944
12.944
13.5331
14.8702
17.3684
21.9995
31.2589
52.8033
116.864
352.259
964.156
962.205
353.662
118.463
53.6934
31.7865
22.3421
17.608
15.0495
13.6782
13.0733
13.0733
13.6782
15.0495
17.6079
22.3421
31.7863
53.6931
118.463
353.662
962.205
960.074
354.765
119.966
54.5515
32.3009
22.6788
17.8451
15.2284
13.8239
13.2039
13.2039
13.8239
15.2283
17.8451
22.6787
32.3007
54.5511
119.965
354.763
960.075
957.789
355.618
121.397
55.3842
32.8035
23.0097
18.0798
15.4067
13.9702
13.3355
13.3355
13.9702
15.4066
18.0798
23.0097
32.8033
55.384
121.396
355.617
957.79
955.383
356.171
122.737
56.1865
33.2932
23.3347
18.3119
15.5842
14.1168
13.468
13.468
14.1168
15.5842
18.3118
23.3347
33.2931
56.1863
122.736
356.172
955.383
952.87
356.558
124.013
56.9662
33.7719
23.6541
18.5413
15.7609
14.2635
13.601
13.601
14.2635
15.7609
18.5413
23.6541
33.7717
56.966
124.013
356.557
952.871
950.288
356.612
125.205
57.7173
34.2383
23.9677
18.7681
15.9367
14.4103
13.7346
13.7346
14.4103
15.9367
18.7681
23.9677
34.2382
57.7172
125.204
356.612
950.288
947.636
356.52
126.338
58.4477
34.694
24.2757
18.9921
16.1114
14.5569
13.8684
13.8684
14.5569
16.1113
18.9921
24.2757
34.6939
58.4475
126.338
356.521
947.637
944.96
356.291
127.393
59.1519
35.1383
24.578
19.2134
16.2848
14.7033
14.0024
14.0024
14.7033
16.2848
19.2133
24.5779
35.1382
59.1518
127.393
356.292
944.961
942.245
355.827
128.401
59.837
35.5723
24.8748
19.4318
16.457
14.8493
14.1364
14.1364
14.8493
16.457
19.4317
24.8747
35.5723
59.8369
128.401
355.828
942.246
939.542
355.236
129.337
60.4993
35.9959
25.1661
19.6473
16.6279
14.9947
14.2703
14.2703
14.9947
16.6279
19.6473
25.1661
35.9959
60.4992
129.336
355.237
939.543
936.822
354.509
130.245
61.1462
36.4103
25.4523
19.8601
16.7974
15.1396
14.4039
14.4039
15.1396
16.7974
19.8601
25.4523
36.4102
61.146
130.245
354.509
936.823
934.149
353.717
131.102
61.7754
36.8151
25.7333
20.0701
16.9654
15.2838
14.5373
14.5373
15.2838
16.9654
20.0701
25.7333
36.815
61.7753
131.102
353.717
934.15
931.468
352.88
131.977
62.395
37.211
26.0091
20.2771
17.1319
15.4272
14.6702
14.6702
15.4272
17.1319
20.2771
26.0091
37.211
62.395
131.977
352.88
931.469
928.865
352.018
132.872
63.0131
37.5995
26.2802
20.4814
17.2968
15.5698
14.8025
14.8025
15.5698
17.2968
20.4814
26.2802
37.5995
63.0129
132.871
352.02
928.866
926.337
351.166
133.815
63.6341
37.9816
26.5467
20.6829
17.4601
15.7114
14.9343
14.9343
15.7114
17.4601
20.6829
26.5467
37.9816
63.6341
133.816
351.166
926.338
923.879
350.414
134.842
64.2638
38.3582
26.8089
20.8817
17.6218
15.8521
15.0653
15.0653
15.8521
17.6218
20.8817
26.8088
38.3582
64.2636
134.841
350.415
923.88
921.489
349.754
135.959
64.9049
38.7305
27.0669
21.0778
17.7818
15.9917
15.1957
15.1957
15.9917
17.7818
21.0778
27.0669
38.7306
64.9055
135.961
349.755
921.49
919.166
349.285
137.189
65.5635
39.1002
27.3213
21.2714
17.9402
16.1302
15.3252
15.3252
16.1303
17.9402
21.2714
27.3213
39.1002
65.5631
137.187
349.286
919.166
916.905
348.935
138.51
66.2365
39.4677
27.5723
21.4623
18.0969
16.2676
15.4538
15.4538
16.2677
18.0969
21.4623
27.5723
39.4677
66.2366
138.511
348.937
916.906
914.709
348.832
139.933
66.9287
39.8346
27.8203
21.6509
18.2519
16.4039
15.5815
15.5815
16.4039
18.2519
21.6509
27.8203
39.8346
66.9287
139.933
348.834
914.709
912.573
348.893
141.437
67.6374
40.2014
28.0657
21.8372
18.4053
16.5389
15.7083
15.7083
16.5389
18.4053
21.8373
28.0658
40.2018
67.6383
141.439
348.895
912.574
910.502
349.069
143.009
68.3629
40.5691
28.3089
22.0214
18.557
16.6728
15.834
15.834
16.6728
18.5571
22.0215
28.3089
40.5692
68.3628
143.008
349.071
910.501
908.492
349.429
144.631
69.1008
40.9369
28.5497
22.2034
18.7071
16.8053
15.9587
15.9587
16.8053
18.7072
22.2035
28.5498
40.937
69.1007
144.631
349.431
908.493
906.549
349.934
146.305
69.8539
41.3062
28.7887
22.3833
18.8556
16.9366
16.0823
16.0823
16.9366
18.8556
22.3834
28.7887
41.3061
69.8539
146.306
349.936
906.549
904.667
350.557
148.02
70.6219
41.6775
29.0263
22.5615
19.0025
17.0667
16.2048
16.2048
17.0667
19.0026
22.5616
29.0266
41.6782
70.6236
148.023
350.562
904.667
902.851
351.281
149.754
71.4017
42.0514
29.2628
22.7379
19.1479
17.1955
16.3262
16.3262
17.1955
19.148
22.7381
29.263
42.0516
71.402
149.754
351.283
902.85
901.098
352.082
151.492
72.1879
42.4262
29.498
22.9127
19.2918
17.323
16.4464
16.4465
17.323
19.2919
22.9129
29.4983
42.4268
72.1891
151.495
352.092
901.097
899.412
352.953
153.232
72.9794
42.8016
29.7315
23.0855
19.434
17.4491
16.5655
16.5655
17.4492
19.4342
23.0858
29.732
42.8024
72.9808
153.235
352.96
899.41
897.789
353.873
154.972
73.7765
43.1779
29.9637
23.2566
19.5747
17.5739
16.6833
16.6833
17.574
19.575
23.2572
29.9647
43.1799
73.7811
154.981
353.889
897.786
896.233
354.836
156.706
74.5806
43.5564
30.1952
23.4262
19.7138
17.6973
16.7998
16.7999
17.6975
19.7143
23.4269
30.1963
43.5582
74.5835
156.71
354.853
896.228
894.741
355.823
158.415
75.385
43.9354
30.4255
23.5944
19.8516
17.8195
16.9153
16.9154
17.8198
19.8522
23.5954
30.4274
43.9388
75.392
158.429
355.849
894.733
893.317
356.812
160.093
76.1846
44.313
30.6543
23.7608
19.9878
17.9403
17.0295
17.0296
17.9408
19.9887
23.7624
30.657
44.3182
76.1955
160.113