/*--------------------------------*- C++ -*----------------------------------*\
| =========                 |                                                 |
| \\      /  F ield         | OpenFOAM: The Open Source CFD Toolbox           |
|  \\    /   O peration     | Version:  2.1.0                                 |
|   \\  /    A nd           | Web:      www.OpenFOAM.org                      |
|    \\/     M anipulation  |                                                 |
\*---------------------------------------------------------------------------*/
FoamFile
{
    version     2.0;
    format      ascii;
    class       volScalarField;
    location    "0.22";
    object      p;
}
// * * * * * * * * * * * * * * * * * * * * * * * * * * * * * * * * * * * * * //

dimensions      [1 -1 -2 0 0 0 0];

internalField   nonuniform List<scalar> 
6400
(
99998.4
99995.8
99993.9
99992.3
99990.8
99989.4
99988
99986.5
99985.1
99983.6
99982
99980.4
99978.7
99977
99975.2
99973.3
99971.4
99969.4
99967.3
99965.2
99962.9
99960.6
99958.3
99955.9
99953.3
99950.8
99948.1
99945.3
99942.5
99939.6
99936.6
99933.5
99930.3
99927
99923.6
99920.2
99916.6
99912.9
99909.1
99905.1
99901.1
99896.9
99892.6
99888.2
99883.6
99878.8
99873.9
99868.9
99863.7
99858.3
99852.7
99846.9
99841
99834.8
99828.5
99822
99815.2
99808.2
99801
99793.6
99785.9
99777.9
99769.7
99761.1
99752.3
99743.1
99733.7
99723.8
99713.6
99703.1
99692.1
99680.8
99669
99656.9
99644.3
99631.3
99617.9
99604.1
99589.7
99574.8
99559.4
99543.4
99526.6
99508.9
99490.1
99469.9
99448
99424
99397.4
99367.8
99335.2
99300.6
99266
99233.1
99202.4
99166.3
99110.5
98997.7
98633.2
97052.9
99996.8
99995.1
99993.4
99991.9
99990.4
99989
99987.6
99986.2
99984.7
99983.2
99981.6
99980
99978.3
99976.6
99974.8
99972.9
99971
99969
99966.9
99964.7
99962.5
99960.2
99957.9
99955.4
99952.9
99950.3
99947.7
99944.9
99942.1
99939.1
99936.1
99933
99929.8
99926.6
99923.2
99919.7
99916.1
99912.4
99908.6
99904.6
99900.6
99896.4
99892.1
99887.7
99883.1
99878.3
99873.5
99868.4
99863.2
99857.8
99852.2
99846.5
99840.6
99834.4
99828.1
99821.6
99814.9
99807.9
99800.7
99793.3
99785.6
99777.7
99769.5
99761
99752.2
99743
99733.6
99723.8
99713.7
99703.1
99692.2
99681
99669.3
99657.2
99644.7
99631.7
99618.3
99604.5
99590.1
99575.3
99559.9
99543.8
99527
99509.3
99490.5
99470.3
99448.4
99424.4
99397.8
99368.4
99336.1
99301.7
99267
99234.3
99205.1
99174.2
99124.8
99027.1
98732.2
98189
99995.3
99994.3
99993
99991.6
99990.2
99988.8
99987.4
99986
99984.6
99983
99981.5
99979.9
99978.2
99976.4
99974.6
99972.8
99970.8
99968.8
99966.7
99964.6
99962.4
99960.1
99957.7
99955.3
99952.8
99950.2
99947.5
99944.8
99941.9
99939
99936
99932.9
99929.7
99926.5
99923.1
99919.6
99916
99912.3
99908.5
99904.6
99900.6
99896.4
99892.1
99887.7
99883.1
99878.4
99873.5
99868.5
99863.4
99858
99852.5
99846.8
99840.9
99834.8
99828.6
99822.1
99815.4
99808.5
99801.3
99793.9
99786.3
99778.4
99770.3
99761.8
99753.1
99744
99734.6
99724.9
99714.9
99704.5
99693.7
99682.5
99670.9
99658.9
99646.5
99633.7
99620.4
99606.6
99592.4
99577.6
99562.3
99546.2
99529.4
99511.7
99492.9
99472.6
99450.7
99426.8
99400.5
99371.6
99340.3
99307.5
99275.3
99245.6
99219.9
99193.2
99159.3
99099.9
98947.8
99040.1
99993.5
99993.5
99992.6
99991.4
99990.1
99988.8
99987.5
99986.1
99984.6
99983.1
99981.6
99980
99978.3
99976.6
99974.8
99972.9
99971
99969
99966.9
99964.8
99962.6
99960.3
99958
99955.6
99953.1
99950.5
99947.9
99945.1
99942.3
99939.4
99936.4
99933.3
99930.2
99926.9
99923.5
99920.1
99916.5
99912.8
99909.1
99905.2
99901.2
99897
99892.8
99888.4
99883.8
99879.2
99874.4
99869.4
99864.3
99859
99853.5
99847.8
99842
99836
99829.7
99823.3
99816.7
99809.8
99802.7
99795.4
99787.8
99780
99771.9
99763.5
99754.8
99745.8
99736.5
99726.8
99716.8
99706.4
99695.7
99684.5
99672.9
99660.9
99648.5
99635.6
99622.3
99608.4
99594.1
99579.1
99563.6
99547.3
99530.3
99512.3
99493.2
99472.8
99450.7
99426.8
99400.8
99372.7
99342.9
99312.8
99284.8
99260.3
99242.5
99229.6
99225.5
99231.8
99260.6
99679
99991.5
99992.6
99992.2
99991.3
99990.2
99989
99987.8
99986.4
99985
99983.5
99982
99980.4
99978.7
99977
99975.2
99973.4
99971.5
99969.5
99967.5
99965.4
99963.2
99961
99958.6
99956.2
99953.8
99951.2
99948.6
99945.8
99943
99940.2
99937.2
99934.1
99931
99927.8
99924.4
99921
99917.4
99913.8
99910
99906.2
99902.2
99898
99893.8
99889.4
99884.9
99880.3
99875.5
99870.5
99865.4
99860.1
99854.7
99849
99843.2
99837.2
99831
99824.5
99817.9
99811.1
99804
99796.7
99789.1
99781.3
99773.2
99764.8
99756.1
99747.1
99737.7
99728
99718
99707.6
99696.7
99685.5
99673.9
99661.8
99649.3
99636.3
99622.8
99608.9
99594.3
99579.2
99563.4
99546.9
99529.5
99511.3
99491.9
99471.2
99449
99425.2
99399.7
99372.6
99344.9
99318.2
99295.8
99278.6
99270.8
99281.3
99319.4
99412.2
99610.7
100182
99989.5
99991.7
99991.9
99991.3
99990.5
99989.4
99988.2
99986.9
99985.5
99984.1
99982.6
99981
99979.4
99977.6
99975.9
99974
99972.2
99970.2
99968.2
99966.1
99963.9
99961.7
99959.4
99957
99954.5
99952
99949.3
99946.6
99943.8
99941
99938
99935
99931.8
99928.6
99925.3
99921.8
99918.3
99914.6
99910.9
99907
99903
99898.9
99894.6
99890.2
99885.7
99881
99876.2
99871.2
99866.1
99860.8
99855.3
99849.7
99843.8
99837.8
99831.5
99825.1
99818.4
99811.6
99804.5
99797.1
99789.6
99781.7
99773.6
99765.2
99756.5
99747.5
99738.1
99728.4
99718.4
99707.9
99697.1
99685.9
99674.2
99662.1
99649.5
99636.4
99622.8
99608.7
99593.9
99578.6
99562.5
99545.7
99528
99509.4
99489.7
99468.7
99446.3
99422.6
99397.6
99371.8
99346.3
99323.4
99306.9
99298.2
99303.8
99342.1
99429.3
99613.6
99946.8
100577
99987.8
99990.8
99991.6
99991.4
99990.7
99989.8
99988.7
99987.4
99986.1
99984.6
99983.1
99981.5
99979.9
99978.2
99976.4
99974.6
99972.7
99970.7
99968.7
99966.6
99964.4
99962.2
99959.9
99957.5
99955
99952.5
99949.8
99947.1
99944.3
99941.4
99938.5
99935.4
99932.3
99929
99925.7
99922.2
99918.7
99915
99911.2
99907.3
99903.3
99899.2
99894.9
99890.5
99885.9
99881.2
99876.4
99871.4
99866.3
99861
99855.5
99849.8
99843.9
99837.9
99831.6
99825.2
99818.6
99811.7
99804.6
99797.2
99789.6
99781.8
99773.7
99765.3
99756.6
99747.6
99738.2
99728.5
99718.5
99708
99697.2
99685.9
99674.2
99662
99649.4
99636.2
99622.5
99608.2
99593.3
99577.7
99561.3
99544.2
99526.1
99507.1
99487
99465.7
99443.2
99419.5
99395
99370.4
99347.1
99327.7
99316.6
99317.1
99338.7
99403.6
99539.4
99806.6
100235
100875
99986.5
99990.1
99991.2
99991.3
99990.8
99989.9
99988.9
99987.7
99986.3
99984.9
99983.4
99981.8
99980.2
99978.5
99976.7
99974.8
99972.9
99971
99968.9
99966.8
99964.6
99962.4
99960.1
99957.7
99955.2
99952.6
99950
99947.3
99944.4
99941.5
99938.6
99935.5
99932.3
99929
99925.7
99922.2
99918.6
99914.9
99911.1
99907.2
99903.2
99899
99894.8
99890.3
99885.8
99881.1
99876.2
99871.2
99866.1
99860.8
99855.3
99849.6
99843.8
99837.7
99831.5
99825.1
99818.4
99811.6
99804.5
99797.2
99789.6
99781.8
99773.7
99765.3
99756.6
99747.6
99738.3
99728.7
99718.6
99708.2
99697.4
99686.1
99674.4
99662.1
99649.4
99636.2
99622.3
99607.8
99592.7
99576.8
99560.2
99542.7
99524.2
99504.8
99484.2
99462.6
99439.8
99416.2
99392.1
99368.5
99347
99330.6
99323.8
99332.6
99368.7
99456.7
99634.4
99967.4
100457
101087
99985.8
99989.5
99990.9
99991.1
99990.7
99989.9
99988.9
99987.7
99986.4
99984.9
99983.4
99981.8
99980.2
99978.4
99976.6
99974.8
99972.9
99970.9
99968.8
99966.7
99964.5
99962.2
99959.9
99957.5
99955
99952.4
99949.8
99947
99944.2
99941.3
99938.3
99935.2
99932
99928.7
99925.3
99921.8
99918.2
99914.5
99910.7
99906.8
99902.8
99898.6
99894.3
99889.9
99885.4
99880.7
99875.9
99870.9
99865.7
99860.4
99855
99849.3
99843.5
99837.5
99831.3
99824.9
99818.3
99811.5
99804.4
99797.2
99789.6
99781.9
99773.8
99765.5
99756.8
99747.9
99738.6
99729
99719
99708.6
99697.8
99686.5
99674.8
99662.5
99649.7
99636.4
99622.4
99607.7
99592.4
99576.3
99559.3
99541.4
99522.4
99502.6
99481.7
99459.6
99436.6
99412.9
99389
99366.1
99345.9
99331.6
99328
99342.7
99389.5
99494.3
99701.9
100080
100605
101222
99985.5
99989.2
99990.6
99991
99990.6
99989.8
99988.8
99987.6
99986.2
99984.8
99983.2
99981.6
99979.9
99978.2
99976.4
99974.5
99972.5
99970.5
99968.5
99966.3
99964.1
99961.8
99959.4
99957
99954.5
99951.9
99949.2
99946.5
99943.7
99940.7
99937.8
99934.7
99931.5
99928.2
99924.9
99921.4
99917.8
99914.2
99910.4
99906.5
99902.4
99898.3
99894
99889.7
99885.1
99880.5
99875.6
99870.7
99865.6
99860.3
99854.8
99849.2
99843.4
99837.4
99831.3
99824.9
99818.3
99811.5
99804.5
99797.3
99789.8
99782.1
99774
99765.8
99757.2
99748.3
99739
99729.4
99719.5
99709.1
99698.3
99687
99675.3
99663
99650.2
99636.7
99622.6
99607.8
99592.2
99575.9
99558.6
99540.4
99521.2
99500.8
99479.3
99456.8
99433.4
99409.5
99385.7
99363.1
99343.7
99330.6
99328.7
99346.4
99398.7
99512.5
99734.8
100134
100674
101285
99985.6
99989.3
99990.7
99991
99990.7
99989.9
99988.8
99987.6
99986.3
99984.8
99983.3
99981.7
99980
99978.2
99976.4
99974.5
99972.6
99970.6
99968.5
99966.4
99964.1
99961.8
99959.5
99957
99954.5
99952
99949.3
99946.5
99943.7
99940.8
99937.8
99934.7
99931.5
99928.3
99924.9
99921.4
99917.9
99914.2
99910.4
99906.5
99902.5
99898.3
99894.1
99889.7
99885.1
99880.5
99875.7
99870.7
99865.6
99860.3
99854.9
99849.3
99843.5
99837.5
99831.4
99825
99818.5
99811.7
99804.7
99797.5
99790
99782.3
99774.4
99766.1
99757.6
99748.7
99739.5
99730
99720
99709.7
99698.9
99687.6
99675.9
99663.6
99650.7
99637.2
99622.9
99608
99592.2
99575.5
99558
99539.4
99519.8
99498.9
99477
99454.1
99430.2
99405.9
99382
99359.4
99340.1
99327.3
99325.6
99343.4
99395.6
99509.1
99730.1
100127
100666
101276
99986
99989.7
99991
99991.2
99990.8
99990
99988.9
99987.7
99986.3
99984.9
99983.4
99981.8
99980.1
99978.4
99976.6
99974.7
99972.8
99970.8
99968.7
99966.6
99964.4
99962.1
99959.8
99957.4
99954.9
99952.3
99949.7
99946.9
99944.1
99941.2
99938.2
99935.1
99931.9
99928.7
99925.3
99921.8
99918.2
99914.5
99910.7
99906.8
99902.8
99898.6
99894.4
99889.9
99885.4
99880.7
99875.9
99870.9
99865.8
99860.5
99855.1
99849.5
99843.7
99837.7
99831.6
99825.3
99818.7
99812
99805
99797.8
99790.4
99782.7
99774.8
99766.6
99758
99749.2
99740.1
99730.5
99720.6
99710.3
99699.6
99688.3
99676.6
99664.2
99651.3
99637.7
99623.3
99608.2
99592.2
99575.3
99557.4
99538.5
99518.5
99497.2
99474.8
99451.4
99427
99402.3
99377.8
99354.8
99335
99321.5
99318.5
99333.6
99380.7
99484.3
99687.9
100059
100580
101197
99987
99990.4
99991.4
99991.4
99990.8
99989.9
99988.8
99987.6
99986.2
99984.8
99983.3
99981.7
99980
99978.3
99976.5
99974.7
99972.8
99970.8
99968.7
99966.6
99964.4
99962.2
99959.8
99957.4
99955
99952.4
99949.8
99947
99944.2
99941.3
99938.3
99935.3
99932.1
99928.8
99925.5
99922
99918.4
99914.8
99911
99907.1
99903.1
99898.9
99894.7
99890.3
99885.7
99881
99876.2
99871.3
99866.1
99860.9
99855.4
99849.8
99844
99838.1
99832
99825.6
99819.1
99812.4
99805.4
99798.3
99790.8
99783.2
99775.3
99767.1
99758.6
99749.8
99740.7
99731.2
99721.3
99711
99700.3
99689.1
99677.3
99665
99652
99638.3
99623.8
99608.6
99592.4
99575.3
99557.1
99537.8
99517.4
99495.7
99472.9
99448.9
99424
99398.7
99373.6
99349.8
99328.9
99313.9
99308.2
99318.2
99355.4
99440.9
99612.5
99936.6
100420
101050
99988.4
99991.2
99991.8
99991.5
99990.8
99989.8
99988.6
99987.3
99986
99984.5
99983
99981.4
99979.7
99978
99976.2
99974.4
99972.5
99970.5
99968.5
99966.3
99964.2
99961.9
99959.6
99957.2
99954.7
99952.2
99949.5
99946.8
99944
99941.1
99938.1
99935.1
99931.9
99928.7
99925.3
99921.9
99918.3
99914.6
99910.9
99907
99903
99898.9
99894.6
99890.2
99885.7
99881.1
99876.3
99871.3
99866.2
99861
99855.6
99850
99844.2
99838.3
99832.2
99825.9
99819.4
99812.7
99805.8
99798.7
99791.3
99783.7
99775.8
99767.7
99759.2
99750.5
99741.4
99731.9
99722.1
99711.9
99701.1
99689.9
99678.2
99665.8
99652.8
99639
99624.5
99609.1
99592.8
99575.5
99557
99537.5
99516.7
99494.6
99471.3
99446.8
99421.3
99395.2
99369.3
99344.6
99322.7
99305.1
99295.6
99298.7
99322.7
99383.9
99512.2
99768.3
100187
100826
99990.2
99992.1
99992.2
99991.5
99990.6
99989.4
99988.2
99986.9
99985.5
99984
99982.4
99980.8
99979.2
99977.4
99975.7
99973.8
99971.9
99969.9
99967.9
99965.8
99963.6
99961.3
99959
99956.6
99954.1
99951.6
99949
99946.2
99943.4
99940.6
99937.6
99934.5
99931.4
99928.1
99924.8
99921.4
99917.8
99914.2
99910.4
99906.5
99902.5
99898.4
99894.2
99889.8
99885.4
99880.7
99876
99871
99866
99860.7
99855.4
99849.8
99844.1
99838.2
99832.1
99825.9
99819.4
99812.8
99805.9
99798.8
99791.5
99783.9
99776.1
99768
99759.6
99750.9
99741.9
99732.5
99722.7
99712.5
99701.8
99690.7
99678.9
99666.6
99653.5
99639.7
99625.1
99609.7
99593.2
99575.7
99557.1
99537.2
99516.1
99493.7
99470
99444.9
99418.8
99392
99365
99339.1
99315.4
99295.6
99282
99277.4
99286.6
99320.7
99399.6
99571.6
99892
100517
99992.2
99993
99992.5
99991.6
99990.4
99989.1
99987.8
99986.4
99985
99983.5
99981.9
99980.3
99978.6
99976.9
99975.1
99973.2
99971.3
99969.3
99967.2
99965.1
99962.9
99960.6
99958.3
99955.9
99953.4
99950.9
99948.2
99945.5
99942.7
99939.8
99936.8
99933.7
99930.6
99927.3
99924
99920.5
99917
99913.3
99909.5
99905.7
99901.7
99897.6
99893.3
99889
99884.5
99879.9
99875.1
99870.2
99865.1
99859.9
99854.6
99849.1
99843.4
99837.5
99831.5
99825.3
99818.9
99812.3
99805.4
99798.4
99791.1
99783.6
99775.9
99767.8
99759.5
99750.9
99741.9
99732.6
99722.8
99712.7
99702.1
99690.9
99679.2
99666.9
99653.8
99640
99625.4
99609.9
99593.3
99575.7
99556.9
99536.9
99515.6
99492.8
99468.7
99443.3
99416.6
99388.9
99361
99333.6
99308.2
99286.1
99268.6
99257.1
99252.1
99259.7
99289.9
99370.2
99553.2
100114
99994.2
99994
99993
99991.7
99990.3
99989
99987.6
99986.2
99984.7
99983.2
99981.6
99979.9
99978.2
99976.5
99974.7
99972.8
99970.9
99968.9
99966.8
99964.6
99962.4
99960.2
99957.8
99955.4
99952.9
99950.3
99947.6
99944.9
99942
99939.1
99936.1
99933
99929.8
99926.6
99923.2
99919.7
99916.1
99912.5
99908.7
99904.8
99900.8
99896.6
99892.4
99888
99883.5
99878.8
99874
99869.1
99864
99858.8
99853.5
99847.9
99842.2
99836.4
99830.3
99824.1
99817.7
99811.1
99804.3
99797.3
99790
99782.5
99774.8
99766.7
99758.4
99749.8
99740.9
99731.6
99722
99711.9
99701.3
99690.2
99678.5
99666.2
99653.3
99639.5
99624.9
99609.3
99592.8
99575.1
99556.2
99536.1
99514.6
99491.7
99467.3
99441.5
99414.3
99386
99357.1
99328.4
99301.3
99276.9
99257.1
99240.5
99223.5
99209.1
99198
99192.4
99204
99603.5
99996
99994.9
99993.4
99991.9
99990.4
99989
99987.6
99986.1
99984.6
99983.1
99981.5
99979.9
99978.2
99976.4
99974.6
99972.7
99970.8
99968.7
99966.7
99964.5
99962.3
99960
99957.6
99955.2
99952.7
99950
99947.4
99944.6
99941.8
99938.8
99935.8
99932.7
99929.5
99926.2
99922.8
99919.3
99915.7
99912
99908.2
99904.3
99900.3
99896.1
99891.8
99887.4
99882.9
99878.2
99873.4
99868.5
99863.4
99858.1
99852.7
99847.1
99841.4
99835.5
99829.4
99823.1
99816.6
99810
99803.1
99796.1
99788.8
99781.3
99773.5
99765.4
99757.1
99748.4
99739.5
99730.2
99720.4
99710.3
99699.7
99688.6
99676.9
99664.6
99651.5
99637.8
99623.1
99607.5
99590.9
99573.2
99554.2
99534
99512.4
99489.4
99464.8
99438.8
99411.3
99382.5
99352.9
99323.2
99294.8
99268.9
99247
99228.7
99203.8
99174.7
99134.4
99063.8
98894.1
98955.6
99997.4
99995.6
99993.9
99992.2
99990.7
99989.3
99987.8
99986.3
99984.8
99983.3
99981.7
99980.1
99978.4
99976.6
99974.8
99972.9
99970.9
99968.9
99966.9
99964.7
99962.5
99960.2
99957.8
99955.4
99952.9
99950.2
99947.6
99944.8
99942
99939
99936
99932.9
99929.7
99926.4
99923
99919.5
99915.9
99912.2
99908.4
99904.5
99900.4
99896.2
99892
99887.5
99883
99878.3
99873.5
99868.5
99863.4
99858.1
99852.7
99847.1
99841.3
99835.4
99829.2
99822.9
99816.4
99809.8
99802.9
99795.8
99788.5
99780.9
99773.1
99765
99756.6
99747.9
99738.9
99729.5
99719.8
99709.6
99698.9
99687.7
99676
99663.5
99650.4
99636.5
99621.7
99606
99589.2
99571.3
99552.2
99531.7
99509.8
99486.5
99461.6
99435.1
99407.1
99377.7
99347.2
99316.4
99286.4
99258.5
99233
99210.9
99191
99157.3
99101.3
98992.6
98680.2
98086.6
99998.8
99996.2
99994.3
99992.6
99991.1
99989.6
99988.2
99986.7
99985.2
99983.7
99982.1
99980.4
99978.8
99977
99975.2
99973.3
99971.4
99969.3
99967.3
99965.1
99962.9
99960.6
99958.3
99955.8
99953.3
99950.7
99948
99945.3
99942.4
99939.5
99936.5
99933.4
99930.2
99926.9
99923.5
99920
99916.4
99912.7
99908.9
99905
99901
99896.8
99892.5
99888.1
99883.6
99878.9
99874.1
99869.1
99864
99858.7
99853.3
99847.7
99841.9
99836
99829.9
99823.6
99817.1
99810.4
99803.5
99796.4
99789.1
99781.5
99773.7
99765.6
99757.2
99748.5
99739.5
99730.1
99720.4
99710.2
99699.5
99688.3
99676.5
99664.1
99651
99637.1
99622.3
99606.5
99589.7
99571.8
99552.6
99532.1
99510.2
99486.7
99461.8
99435.2
99407
99377.4
99346.8
99315.9
99286.1
99258.3
99232.9
99207.6
99178.2
99137.6
99078.9
98960
98580.9
96922
100589
101844
102379
102684
102893
103049
103172
103271
103352
103418
103473
103518
103555
103584
103607
103624
103636
103642
103643
103639
100541
101553
102178
102572
102835
103024
103166
103277
103366
103438
103495
103542
103579
103608
103630
103645
103655
103659
103658
103649
100824
101584
102121
102513
102795
103002
103159
103280
103375
103451
103511
103559
103596
103625
103645
103659
103667
103670
103668
103654
101096
101714
102170
102526
102799
103008
103169
103295
103394
103471
103532
103580
103616
103643
103662
103674
103680
103681
103677
103658
101328
101853
102252
102574
102830
103032
103192
103318
103418
103496
103556
103603
103638
103662
103679
103688
103692
103691
103685
103661
101524
101983
102341
102635
102875
103069
103224
103347
103446
103522
103582
103627
103659
103682
103695
103702
103703
103700
103691
103663
101683
102094
102423
102697
102924
103108
103258
103379
103475
103550
103608
103650
103681
103700
103711
103715
103713
103708
103695
103664
101803
102181
102490
102750
102967
103145
103291
103409
103503
103577
103633
103673
103701
103717
103725
103726
103722
103714
103698
103666
101883
102240
102538
102790
103000
103175
103318
103435
103528
103600
103654
103693
103718
103732
103737
103735
103730
103720
103700
103671
101923
102271
102564
102812
103020
103194
103336
103451
103543
103615
103668
103706
103730
103742
103745
103742
103735
103723
103701
103677
101914
102264
102557
102805
103014
103188
103330
103447
103539
103611
103665
103703
103728
103740
103743
103740
103733
103722
103701
103677
101861
102221
102520
102773
102985
103161
103306
103423
103518
103591
103647
103687
103713
103728
103734
103732
103727
103718
103700
103675
101772
102153
102464
102727
102946
103127
103274
103395
103491
103566
103624
103666
103695
103713
103721
103723
103719
103712
103697
103674
101643
102058
102390
102668
102898
103086
103239
103362
103461
103538
103598
103643
103674
103695
103707
103711
103710
103706
103694
103672
101477
101940
102302
102601
102845
103043
103202
103329
103430
103510
103571
103618
103653
103676
103691
103699
103700
103698
103689
103664
101275
101805
102209
102535
102797
103004
103169
103299
103401
103482
103546
103594
103631
103657
103675
103685
103689
103689
103683
103662
101036
101661
102122
102485
102764
102978
103145
103274
103377
103458
103521
103571
103609
103638
103658
103671
103677
103679
103675
103659
100758
101525
102071
102470
102759
102972
103134
103259
103358
103437
103500
103550
103589
103619
103641
103656
103665
103668
103666
103655
100467
101491
102128
102530
102800
102995
103142
103257
103349
103424
103484
103533
103572
103602
103626
103642
103652
103657
103656
103649
100511
101787
102333
102645
102860
103021
103148
103250
103335
103404
103461
103508
103547
103578
103602
103620
103633
103639
103641
103638
103478
103476
103475
103474
103473
103473
103472
103472
103472
103472
103472
103472
103472
103472
103473
103473
103474
103475
103476
103478
103475
103473
103472
103472
103472
103471
103471
103471
103471
103471
103471
103471
103471
103471
103471
103472
103472
103472
103473
103475
103474
103472
103472
103472
103472
103472
103472
103472
103472
103472
103472
103472
103472
103472
103472
103472
103472
103472
103472
103474
103474
103472
103472
103472
103472
103472
103472
103472
103472
103472
103472
103472
103472
103472
103472
103472
103472
103472
103472
103474
103474
103472
103472
103472
103472
103471
103471
103471
103471
103471
103471
103471
103471
103471
103471
103472
103472
103472
103472
103474
103473
103471
103471
103471
103471
103471
103471
103471
103471
103471
103471
103471
103471
103471
103471
103471
103471
103471
103471
103473
103472
103471
103471
103471
103470
103470
103470
103470
103470
103470
103470
103470
103470
103470
103470
103470
103471
103471
103471
103472
103472
103470
103470
103470
103470
103470
103470
103470
103470
103470
103470
103470
103470
103470
103470
103470
103470
103470
103470
103472
103471
103469
103469
103469
103469
103469
103469
103469
103469
103469
103469
103469
103469
103469
103469
103469
103469
103469
103469
103471
103470
103469
103469
103469
103468
103468
103468
103468
103468
103468
103468
103468
103468
103468
103468
103468
103469
103469
103469
103470
103470
103468
103468
103468
103468
103468
103468
103468
103468
103468
103468
103468
103468
103468
103468
103468
103468
103468
103468
103470
103469
103467
103467
103467
103467
103467
103467
103467
103467
103467
103467
103467
103467
103467
103467
103467
103467
103467
103467
103469
103468
103467
103467
103466
103466
103466
103466
103466
103466
103466
103466
103466
103466
103466
103466
103466
103466
103467
103467
103468
103468
103466
103466
103466
103466
103466
103466
103465
103465
103465
103465
103465
103465
103466
103466
103466
103466
103466
103466
103468
103467
103465
103465
103465
103465
103465
103465
103465
103465
103465
103465
103465
103465
103465
103465
103465
103465
103465
103465
103467
103466
103464
103464
103464
103464
103464
103464
103464
103464
103464
103464
103464
103464
103464
103464
103464
103464
103464
103464
103466
103465
103464
103464
103463
103463
103463
103463
103463
103463
103463
103463
103463
103463
103463
103463
103463
103463
103464
103464
103465
103464
103463
103463
103463
103463
103463
103462
103462
103462
103462
103462
103462
103462
103462
103463
103463
103463
103463
103463
103464
103464
103462
103462
103462
103462
103462
103462
103462
103462
103462
103462
103462
103462
103462
103462
103462
103462
103462
103462
103464
103463
103461
103461
103461
103461
103461
103461
103461
103461
103461
103461
103461
103461
103461
103461
103461
103461
103461
103461
103463
103462
103461
103460
103460
103460
103460
103460
103460
103460
103460
103460
103460
103460
103460
103460
103460
103460
103460
103461
103462
103461
103460
103460
103460
103459
103459
103459
103459
103459
103459
103459
103459
103459
103459
103459
103459
103460
103460
103460
103461
103460
103459
103459
103459
103459
103459
103459
103459
103458
103458
103458
103458
103459
103459
103459
103459
103459
103459
103459
103460
103459
103458
103458
103458
103458
103458
103458
103458
103458
103458
103458
103458
103458
103458
103458
103458
103458
103458
103458
103459
103458
103457
103457
103457
103457
103457
103457
103457
103457
103457
103457
103457
103457
103457
103457
103457
103457
103457
103457
103458
103458
103457
103456
103456
103456
103456
103456
103456
103456
103456
103456
103456
103456
103456
103456
103456
103456
103456
103457
103458
103457
103456
103456
103456
103455
103455
103455
103455
103455
103455
103455
103455
103455
103455
103455
103455
103456
103456
103456
103457
103456
103455
103455
103455
103455
103455
103455
103455
103454
103454
103454
103454
103455
103455
103455
103455
103455
103455
103455
103456
103455
103454
103454
103454
103454
103454
103454
103454
103454
103454
103454
103454
103454
103454
103454
103454
103454
103454
103454
103455
103454
103453
103453
103453
103453
103453
103453
103453
103453
103453
103453
103453
103453
103453
103453
103453
103453
103453
103453
103454
103453
103452
103452
103452
103452
103452
103452
103452
103452
103452
103452
103452
103452
103452
103452
103452
103452
103452
103452
103453
103453
103452
103452
103451
103451
103451
103451
103451
103451
103451
103451
103451
103451
103451
103451
103451
103451
103452
103452
103453
103452
103451
103451
103451
103451
103451
103451
103451
103451
103450
103450
103451
103451
103451
103451
103451
103451
103451
103451
103452
103451
103450
103450
103450
103450
103450
103450
103450
103450
103450
103450
103450
103450
103450
103450
103450
103450
103450
103450
103451
103450
103449
103449
103449
103449
103449
103449
103449
103449
103449
103449
103449
103449
103449
103449
103449
103449
103449
103449
103450
103449
103449
103448
103448
103448
103448
103448
103448
103448
103448
103448
103448
103448
103448
103448
103448
103448
103448
103449
103449
103448
103448
103448
103448
103447
103447
103447
103447
103447
103447
103447
103447
103447
103447
103447
103447
103448
103448
103448
103448
103448
103447
103447
103447
103447
103447
103447
103447
103447
103447
103447
103447
103447
103447
103447
103447
103447
103447
103447
103448
103447
103446
103446
103446
103446
103446
103446
103446
103446
103446
103446
103446
103446
103446
103446
103446
103446
103446
103446
103447
103446
103445
103445
103445
103445
103445
103445
103445
103445
103445
103445
103445
103445
103445
103445
103445
103445
103445
103445
103446
103445
103445
103444
103444
103444
103444
103444
103444
103444
103444
103444
103444
103444
103444
103444
103444
103444
103444
103445
103445
103444
103444
103444
103444
103444
103444
103444
103444
103444
103444
103444
103444
103444
103444
103444
103444
103444
103444
103444
103444
103444
103443
103443
103443
103443
103443
103443
103443
103443
103443
103443
103443
103443
103443
103443
103443
103443
103443
103443
103444
103443
103442
103442
103442
103442
103442
103442
103442
103442
103442
103442
103442
103442
103442
103442
103442
103442
103442
103442
103443
103442
103442
103441
103441
103441
103441
103441
103441
103441
103441
103441
103441
103441
103441
103441
103441
103441
103441
103442
103442
103441
103441
103441
103441
103441
103441
103441
103441
103441
103441
103441
103441
103441
103441
103441
103441
103441
103441
103441
103441
103440
103440
103440
103440
103440
103440
103440
103440
103440
103440
103440
103440
103440
103440
103440
103440
103440
103440
103440
103440
103440
103439
103439
103439
103439
103439
103439
103439
103439
103439
103439
103439
103439
103439
103439
103439
103439
103439
103439
103440
103439
103439
103439
103439
103438
103438
103438
103438
103438
103438
103438
103438
103438
103438
103438
103438
103439
103439
103439
103439
103438
103438
103438
103438
103438
103438
103438
103438
103438
103438
103438
103438
103438
103438
103438
103438
103438
103438
103438
103438
103437
103437
103437
103437
103437
103437
103437
103437
103437
103437
103437
103437
103437
103437
103437
103437
103437
103437
103437
103437
103437
103437
103436
103436
103436
103436
103436
103436
103436
103436
103436
103436
103436
103436
103436
103436
103436
103436
103437
103437
103436
103436
103436
103436
103436
103436
103436
103436
103436
103436
103436
103436
103436
103436
103436
103436
103436
103436
103436
103436
103435
103435
103435
103435
103435
103435
103435
103435
103435
103435
103435
103435
103435
103435
103435
103435
103435
103435
103435
103435
103435
103434
103434
103434
103434
103434
103434
103434
103434
103434
103434
103434
103434
103434
103434
103434
103434
103434
103434
103435
103434
103434
103434
103434
103434
103434
103434
103433
103433
103433
103433
103433
103433
103434
103434
103434
103434
103434
103434
103434
103433
103433
103433
103433
103433
103433
103433
103433
103433
103433
103433
103433
103433
103433
103433
103433
103433
103433
103433
103433
103432
103432
103432
103432
103432
103432
103432
103432
103432
103432
103432
103432
103432
103432
103432
103432
103432
103432
103432
103432
103432
103432
103432
103432
103432
103431
103431
103431
103431
103431
103431
103431
103431
103431
103431
103432
103432
103432
103432
103432
103431
103431
103431
103431
103431
103431
103431
103431
103431
103431
103431
103431
103431
103431
103431
103431
103431
103431
103431
103431
103430
103430
103430
103430
103430
103430
103430
103430
103430
103430
103430
103430
103430
103430
103430
103430
103430
103430
103430
103430
103430
103430
103430
103430
103429
103429
103429
103429
103429
103429
103429
103429
103429
103429
103429
103430
103430
103430
103430
103430
103429
103429
103429
103429
103429
103429
103429
103429
103429
103429
103429
103429
103429
103429
103429
103429
103429
103429
103429
103429
103428
103428
103428
103428
103428
103428
103428
103428
103428
103428
103428
103428
103428
103428
103428
103428
103428
103428
103428
103428
103428
103428
103428
103428
103428
103427
103427
103427
103427
103427
103427
103427
103427
103428
103428
103428
103428
103428
103428
103428
103427
103427
103427
103427
103427
103427
103427
103427
103427
103427
103427
103427
103427
103427
103427
103427
103427
103427
103427
103427
103426
103426
103426
103426
103426
103426
103426
103426
103426
103426
103426
103426
103426
103426
103426
103426
103426
103426
103426
103426
103426
103426
103426
103426
103426
103426
103426
103426
103426
103426
103426
103426
103426
103426
103426
103426
103426
103426
103426
103426
103425
103425
103425
103425
103425
103425
103425
103425
103425
103425
103425
103425
103425
103425
103425
103425
103425
103425
103425
103425
103424
103424
103424
103424
103424
103424
103424
103424
103424
103424
103424
103424
103424
103424
103424
103424
103424
103425
103425
103425
103424
103424
103424
103424
103424
103424
103424
103424
103424
103424
103424
103424
103424
103424
103424
103424
103424
103424
103424
103424
103423
103423
103423
103423
103423
103423
103423
103423
103423
103423
103423
103423
103423
103423
103423
103423
103423
103423
103423
103423
103422
103422
103422
103422
103422
103422
103422
103422
103422
103422
103422
103423
103423
103423
103423
103423
103423
103423
103423
103423
103422
103422
103422
103422
103422
103422
103422
103422
103422
103422
103422
103422
103422
103422
103422
103422
103422
103422
103422
103422
103421
103421
103421
103421
103421
103421
103421
103421
103421
103421
103421
103421
103421
103422
103422
103422
103422
103422
103422
103422
103420
103420
103420
103420
103420
103420
103420
103420
103421
103421
103421
103421
103421
103421
103421
103421
103421
103421
103421
103421
103419
103419
103419
103419
103419
103420
103420
103420
103420
103420
103420
103420
103420
103421
103421
103421
103421
103421