/*--------------------------------*- C++ -*----------------------------------*\
| =========                 |                                                 |
| \\      /  F ield         | OpenFOAM: The Open Source CFD Toolbox           |
|  \\    /   O peration     | Version:  2.1.0                                 |
|   \\  /    A nd           | Web:      www.OpenFOAM.org                      |
|    \\/     M anipulation  |                                                 |
\*---------------------------------------------------------------------------*/
FoamFile
{
    version     2.0;
    format      ascii;
    class       surfaceScalarField;
    location    "0.22";
    object      phi;
}
// * * * * * * * * * * * * * * * * * * * * * * * * * * * * * * * * * * * * * //

dimensions      [0 3 -1 0 0 0 0];

internalField   nonuniform List<scalar> 
12460
(
-2.45401e-05
-3.26488e-09
-2.45028e-05
-3.73526e-08
-2.44435e-05
-5.92943e-08
-2.43732e-05
-7.03205e-08
-2.42964e-05
-7.67224e-08
-2.42155e-05
-8.09418e-08
-2.41315e-05
-8.39652e-08
-2.40452e-05
-8.63266e-08
-2.39569e-05
-8.83313e-08
-2.38667e-05
-9.01447e-08
-2.37749e-05
-9.18703e-08
-2.36813e-05
-9.35525e-08
-2.35861e-05
-9.52296e-08
-2.34892e-05
-9.69073e-08
-2.33906e-05
-9.86071e-08
-2.32903e-05
-1.0032e-07
-2.31882e-05
-1.0206e-07
-2.30844e-05
-1.03815e-07
-2.29788e-05
-1.05607e-07
-2.28714e-05
-1.07418e-07
-2.27622e-05
-1.09228e-07
-2.26511e-05
-1.11093e-07
-2.2538e-05
-1.13077e-07
-2.24229e-05
-1.1512e-07
-2.23057e-05
-1.17225e-07
-2.21864e-05
-1.19396e-07
-2.20647e-05
-1.2165e-07
-2.19408e-05
-1.23983e-07
-2.18144e-05
-1.26404e-07
-2.16855e-05
-1.28911e-07
-2.15541e-05
-1.31513e-07
-2.14199e-05
-1.34206e-07
-2.1283e-05
-1.37006e-07
-2.11431e-05
-1.3991e-07
-2.10003e-05
-1.42931e-07
-2.08543e-05
-1.4608e-07
-2.0705e-05
-1.49369e-07
-2.05523e-05
-1.52809e-07
-2.0396e-05
-1.56411e-07
-2.02359e-05
-1.6019e-07
-2.00719e-05
-1.64156e-07
-1.99038e-05
-1.68308e-07
-1.97313e-05
-1.72647e-07
-1.95543e-05
-1.77176e-07
-1.93726e-05
-1.81893e-07
-1.91861e-05
-1.86784e-07
-1.89945e-05
-1.91851e-07
-1.87978e-05
-1.97054e-07
-1.85958e-05
-2.02266e-07
-1.83884e-05
-2.07747e-07
-1.81751e-05
-2.1367e-07
-1.79559e-05
-2.19703e-07
-1.77308e-05
-2.2553e-07
-1.75003e-05
-2.31052e-07
-1.72644e-05
-2.3644e-07
-1.70231e-05
-2.4183e-07
-1.67765e-05
-2.47278e-07
-1.65244e-05
-2.52801e-07
-1.62668e-05
-2.5841e-07
-1.60035e-05
-2.64109e-07
-1.57345e-05
-2.69895e-07
-1.54597e-05
-2.75781e-07
-1.5179e-05
-2.81796e-07
-1.48922e-05
-2.87937e-07
-1.45992e-05
-2.94224e-07
-1.42998e-05
-3.00673e-07
-1.39939e-05
-3.07297e-07
-1.36813e-05
-3.14112e-07
-1.33618e-05
-3.21118e-07
-1.30352e-05
-3.28329e-07
-1.27013e-05
-3.35773e-07
-1.23598e-05
-3.43483e-07
-1.20104e-05
-3.51524e-07
-1.16527e-05
-3.59988e-07
-1.12861e-05
-3.69017e-07
-1.09098e-05
-3.78816e-07
-1.05229e-05
-3.89655e-07
-1.0124e-05
-4.01861e-07
-9.71129e-06
-4.15833e-07
-9.28258e-06
-4.32087e-07
-8.83491e-06
-4.51276e-07
-8.36463e-06
-4.74164e-07
-7.86722e-06
-5.01559e-07
-7.33747e-06
-5.34195e-07
-6.76953e-06
-5.72681e-07
-6.15723e-06
-6.17343e-07
-5.49467e-06
-6.67874e-07
-4.77745e-06
-7.22786e-07
-4.00488e-06
-7.783e-07
-3.18444e-06
-8.26243e-07
-2.33983e-06
-8.50275e-07
-1.52769e-06
-8.1738e-07
-8.53571e-07
-6.78481e-07
-4.38905e-07
-4.17501e-07
-3.19675e-07
-1.20207e-07
-5.6332e-07
2.44137e-07
-1.45111e-06
8.83576e-07
-3.71857e-06
2.2496e-06
-9.18637e-06
5.44072e-06
1.51702e-05
-2.43841e-05
-2.96502e-05
-2.0413e-08
-2.96009e-05
-8.66971e-08
-2.95377e-05
-1.2246e-07
-2.94662e-05
-1.41772e-07
-2.93895e-05
-1.53433e-07
-2.93093e-05
-1.61187e-07
-2.92265e-05
-1.66755e-07
-2.91417e-05
-1.71109e-07
-2.90553e-05
-1.74811e-07
-2.89673e-05
-1.78159e-07
-2.88778e-05
-1.81352e-07
-2.87869e-05
-1.84468e-07
-2.86945e-05
-1.87586e-07
-2.86008e-05
-1.90712e-07
-2.85055e-05
-1.93889e-07
-2.84087e-05
-1.97097e-07
-2.83105e-05
-2.00361e-07
-2.82106e-05
-2.03655e-07
-2.81093e-05
-2.07003e-07
-2.80063e-05
-2.10391e-07
-2.79019e-05
-2.13724e-07
-2.77959e-05
-2.17096e-07
-2.76884e-05
-2.20671e-07
-2.75793e-05
-2.2431e-07
-2.74685e-05
-2.28027e-07
-2.73562e-05
-2.31842e-07
-2.72421e-05
-2.35786e-07
-2.71264e-05
-2.39852e-07
-2.70089e-05
-2.44052e-07
-2.68895e-05
-2.48386e-07
-2.67683e-05
-2.52865e-07
-2.66452e-05
-2.57488e-07
-2.65202e-05
-2.62279e-07
-2.6393e-05
-2.67242e-07
-2.62638e-05
-2.72387e-07
-2.61325e-05
-2.77727e-07
-2.59989e-05
-2.83278e-07
-2.5863e-05
-2.89054e-07
-2.57248e-05
-2.95069e-07
-2.55841e-05
-3.0134e-07
-2.54408e-05
-3.07895e-07
-2.5295e-05
-3.14743e-07
-2.51463e-05
-3.21898e-07
-2.49948e-05
-3.29371e-07
-2.48403e-05
-3.37168e-07
-2.46827e-05
-3.45287e-07
-2.45217e-05
-3.53738e-07
-2.43573e-05
-3.62483e-07
-2.41894e-05
-3.71305e-07
-2.40183e-05
-3.80102e-07
-2.38445e-05
-3.88885e-07
-2.36681e-05
-3.97603e-07
-2.34891e-05
-4.0624e-07
-2.33073e-05
-4.14688e-07
-2.31227e-05
-4.22991e-07
-2.29355e-05
-4.31258e-07
-2.27456e-05
-4.3954e-07
-2.25532e-05
-4.4787e-07
-2.23582e-05
-4.56265e-07
-2.21607e-05
-4.64709e-07
-2.19608e-05
-4.73192e-07
-2.17585e-05
-4.81713e-07
-2.15541e-05
-4.90284e-07
-2.13475e-05
-4.98904e-07
-2.11388e-05
-5.07599e-07
-2.09282e-05
-5.16389e-07
-2.07158e-05
-5.25299e-07
-2.05016e-05
-5.3437e-07
-2.02856e-05
-5.43631e-07
-2.00678e-05
-5.53137e-07
-1.98483e-05
-5.62967e-07
-1.96268e-05
-5.73211e-07
-1.94033e-05
-5.84029e-07
-1.91773e-05
-5.95627e-07
-1.89484e-05
-6.083e-07
-1.8716e-05
-6.22447e-07
-1.84793e-05
-6.38566e-07
-1.8237e-05
-6.57229e-07
-1.79878e-05
-6.79111e-07
-1.773e-05
-7.05064e-07
-1.74615e-05
-7.36123e-07
-1.71797e-05
-7.73494e-07
-1.68817e-05
-8.18456e-07
-1.65639e-05
-8.72129e-07
-1.62228e-05
-9.35377e-07
-1.58545e-05
-1.00858e-06
-1.54558e-05
-1.09101e-06
-1.50244e-05
-1.17999e-06
-1.45606e-05
-1.2693e-06
-1.4069e-05
-1.34652e-06
-1.35607e-05
-1.38855e-06
-1.30542e-05
-1.35521e-06
-1.25775e-05
-1.18769e-06
-1.22081e-05
-8.2032e-07
-1.21562e-05
-2.06562e-07
-1.26284e-05
6.81802e-07
-1.3924e-05
2.1443e-06
-1.65571e-05
4.8456e-06
-2.15538e-05
1.04022e-05
2.59995e-05
-3.24169e-05
-3.25499e-05
-4.45575e-08
-3.25072e-05
-1.29346e-07
-3.24536e-05
-1.76057e-07
-3.23933e-05
-2.02154e-07
-3.23286e-05
-2.18069e-07
-3.22612e-05
-2.28636e-07
-3.21918e-05
-2.36139e-07
-3.2121e-05
-2.41982e-07
-3.20489e-05
-2.46882e-07
-3.19758e-05
-2.51309e-07
-3.19017e-05
-2.55492e-07
-3.18266e-05
-2.59589e-07
-3.17505e-05
-2.63674e-07
-3.16735e-05
-2.67794e-07
-3.15954e-05
-2.7199e-07
-3.15163e-05
-2.76261e-07
-3.14361e-05
-2.8063e-07
-3.13547e-05
-2.85091e-07
-3.12721e-05
-2.89663e-07
-3.11882e-05
-2.94355e-07
-3.1103e-05
-2.99051e-07
-3.10165e-05
-3.03694e-07
-3.0929e-05
-3.08353e-07
-3.08404e-05
-3.12999e-07
-3.07509e-05
-3.1769e-07
-3.06604e-05
-3.22482e-07
-3.0569e-05
-3.27415e-07
-3.04766e-05
-3.32477e-07
-3.03833e-05
-3.37677e-07
-3.0289e-05
-3.43014e-07
-3.01937e-05
-3.48498e-07
-3.00974e-05
-3.54121e-07
-3.00002e-05
-3.59906e-07
-2.99021e-05
-3.65866e-07
-2.9803e-05
-3.71997e-07
-2.97031e-05
-3.78311e-07
-2.96022e-05
-3.84822e-07
-2.95005e-05
-3.91541e-07
-2.9398e-05
-3.98476e-07
-2.92946e-05
-4.05631e-07
-2.91906e-05
-4.13032e-07
-2.90859e-05
-4.20681e-07
-2.89805e-05
-4.28589e-07
-2.88746e-05
-4.36759e-07
-2.87683e-05
-4.45193e-07
-2.86615e-05
-4.53876e-07
-2.85545e-05
-4.62784e-07
-2.84474e-05
-4.71841e-07
-2.83402e-05
-4.80977e-07
-2.82331e-05
-4.9003e-07
-2.81262e-05
-4.98787e-07
-2.80199e-05
-5.07289e-07
-2.79141e-05
-5.15739e-07
-2.78087e-05
-5.24105e-07
-2.77039e-05
-5.32295e-07
-2.75997e-05
-5.40326e-07
-2.74964e-05
-5.48185e-07
-2.73943e-05
-5.55906e-07
-2.72935e-05
-5.63496e-07
-2.71943e-05
-5.70899e-07
-2.70971e-05
-5.78078e-07
-2.70021e-05
-5.8501e-07
-2.69098e-05
-5.91665e-07
-2.68206e-05
-5.98022e-07
-2.67349e-05
-6.04078e-07
-2.66532e-05
-6.09825e-07
-2.65759e-05
-6.15267e-07
-2.65036e-05
-6.20427e-07
-2.64369e-05
-6.25331e-07
-2.63762e-05
-6.30041e-07
-2.6322e-05
-6.34661e-07
-2.62748e-05
-6.393e-07
-2.62351e-05
-6.44191e-07
-2.62031e-05
-6.49635e-07
-2.6179e-05
-6.56062e-07
-2.61629e-05
-6.64056e-07
-2.61544e-05
-6.74338e-07
-2.61532e-05
-6.87728e-07
-2.61583e-05
-7.05174e-07
-2.61687e-05
-7.27851e-07
-2.61829e-05
-7.57132e-07
-2.61989e-05
-7.9458e-07
-2.62146e-05
-8.41839e-07
-2.62273e-05
-9.00309e-07
-2.62344e-05
-9.70941e-07
-2.62331e-05
-1.05398e-06
-2.62214e-05
-1.14825e-06
-2.6198e-05
-1.25e-06
-2.61636e-05
-1.3512e-06
-2.61215e-05
-1.43674e-06
-2.60782e-05
-1.48014e-06
-2.60424e-05
-1.43887e-06
-2.60261e-05
-1.25048e-06
-2.60622e-05
-8.28351e-07
-2.6219e-05
-9.04443e-08
-2.66773e-05
1.10226e-06
-2.76343e-05
3.06452e-06
-2.94781e-05
6.65308e-06
-3.2925e-05
1.38142e-05
3.04915e-05
-3.74594e-05
-3.51996e-05
-6.82515e-08
-3.51689e-05
-1.60024e-07
-3.51318e-05
-2.13157e-07
-3.50899e-05
-2.4405e-07
-3.5045e-05
-2.63069e-07
-3.49981e-05
-2.75546e-07
-3.495e-05
-2.84234e-07
-3.49012e-05
-2.90854e-07
-3.48518e-05
-2.96268e-07
-3.48021e-05
-3.01073e-07
-3.47521e-05
-3.05532e-07
-3.47019e-05
-3.09859e-07
-3.46515e-05
-3.14131e-07
-3.46009e-05
-3.18414e-07
-3.45502e-05
-3.22753e-07
-3.44994e-05
-3.27159e-07
-3.44485e-05
-3.31641e-07
-3.43975e-05
-3.36211e-07
-3.43465e-05
-3.40854e-07
-3.42954e-05
-3.45546e-07
-3.42444e-05
-3.50293e-07
-3.41932e-05
-3.55073e-07
-3.4142e-05
-3.59788e-07
-3.40909e-05
-3.64439e-07
-3.40398e-05
-3.69066e-07
-3.39889e-05
-3.73759e-07
-3.39381e-05
-3.7857e-07
-3.38876e-05
-3.83473e-07
-3.38373e-05
-3.88468e-07
-3.37874e-05
-3.93552e-07
-3.37378e-05
-3.98725e-07
-3.36887e-05
-4.03973e-07
-3.36402e-05
-4.09303e-07
-3.35923e-05
-4.14719e-07
-3.35452e-05
-4.20228e-07
-3.34989e-05
-4.2583e-07
-3.34535e-05
-4.31525e-07
-3.34093e-05
-4.37318e-07
-3.33663e-05
-4.43209e-07
-3.33246e-05
-4.49186e-07
-3.32846e-05
-4.55253e-07
-3.32463e-05
-4.61396e-07
-3.32099e-05
-4.67602e-07
-3.31758e-05
-4.73857e-07
-3.31441e-05
-4.80142e-07
-3.31153e-05
-4.86418e-07
-3.30895e-05
-4.92633e-07
-3.30672e-05
-4.98696e-07
-3.30485e-05
-5.04649e-07
-3.30334e-05
-5.10647e-07
-3.30217e-05
-5.16543e-07
-3.30136e-05
-5.2216e-07
-3.30091e-05
-5.27537e-07
-3.30087e-05
-5.32614e-07
-3.30126e-05
-5.37328e-07
-3.3021e-05
-5.41657e-07
-3.30343e-05
-5.45531e-07
-3.30529e-05
-5.48978e-07
-3.30771e-05
-5.52018e-07
-3.31073e-05
-5.54563e-07
-3.31438e-05
-5.5655e-07
-3.31872e-05
-5.57961e-07
-3.32378e-05
-5.58776e-07
-3.3296e-05
-5.5897e-07
-3.33623e-05
-5.58553e-07
-3.34369e-05
-5.57528e-07
-3.35202e-05
-5.55935e-07
-3.36126e-05
-5.53833e-07
-3.37142e-05
-5.51293e-07
-3.38252e-05
-5.48437e-07
-3.39457e-05
-5.4545e-07
-3.40757e-05
-5.4257e-07
-3.42149e-05
-5.40133e-07
-3.4363e-05
-5.38581e-07
-3.45194e-05
-5.38531e-07
-3.46833e-05
-5.40752e-07
-3.48538e-05
-5.46178e-07
-3.50296e-05
-5.55822e-07
-3.52092e-05
-5.70805e-07
-3.53911e-05
-5.92475e-07
-3.55734e-05
-6.22341e-07
-3.57543e-05
-6.62074e-07
-3.59318e-05
-7.13398e-07
-3.61039e-05
-7.77656e-07
-3.6269e-05
-8.55533e-07
-3.64258e-05
-9.46901e-07
-3.65736e-05
-1.04997e-06
-3.67126e-05
-1.16013e-06
-3.68441e-05
-1.26828e-06
-3.69703e-05
-1.35822e-06
-3.7094e-05
-1.40318e-06
-3.72164e-05
-1.36175e-06
-3.73353e-05
-1.17517e-06
-3.74554e-05
-7.49762e-07
-3.75692e-05
-1.57894e-08
-3.7836e-05
1.33175e-06
-3.83413e-05
3.53299e-06
-3.927e-05
7.54489e-06
-4.08108e-05
1.5317e-05
3.04737e-05
-4.08444e-05
-3.7922e-05
-8.47511e-08
-3.79086e-05
-1.73365e-07
-3.78949e-05
-2.26924e-07
-3.78798e-05
-2.59195e-07
-3.78636e-05
-2.79236e-07
-3.78471e-05
-2.92097e-07
-3.78306e-05
-3.00818e-07
-3.78143e-05
-3.07157e-07
-3.77985e-05
-3.12142e-07
-3.77833e-05
-3.16358e-07
-3.77688e-05
-3.20153e-07
-3.7755e-05
-3.23714e-07
-3.77421e-05
-3.27159e-07
-3.77301e-05
-3.30531e-07
-3.77191e-05
-3.33882e-07
-3.77092e-05
-3.37212e-07
-3.77005e-05
-3.40536e-07
-3.76931e-05
-3.43841e-07
-3.76871e-05
-3.47109e-07
-3.76827e-05
-3.50287e-07
-3.76799e-05
-3.53441e-07
-3.76786e-05
-3.56702e-07
-3.76788e-05
-3.60036e-07
-3.76805e-05
-3.63318e-07
-3.76836e-05
-3.66485e-07
-3.76884e-05
-3.69642e-07
-3.76948e-05
-3.72876e-07
-3.7703e-05
-3.76129e-07
-3.77131e-05
-3.7939e-07
-3.77251e-05
-3.82651e-07
-3.77391e-05
-3.85907e-07
-3.77553e-05
-3.89148e-07
-3.77739e-05
-3.92371e-07
-3.77948e-05
-3.95566e-07
-3.78183e-05
-3.98748e-07
-3.78444e-05
-4.01914e-07
-3.78734e-05
-4.05059e-07
-3.79054e-05
-4.08184e-07
-3.79404e-05
-4.11292e-07
-3.79788e-05
-4.14363e-07
-3.80206e-05
-4.17401e-07
-3.8066e-05
-4.20398e-07
-3.81151e-05
-4.23341e-07
-3.81681e-05
-4.26219e-07
-3.82253e-05
-4.2902e-07
-3.82866e-05
-4.31711e-07
-3.83523e-05
-4.3426e-07
-3.84225e-05
-4.36634e-07
-3.84972e-05
-4.38866e-07
-3.85766e-05
-4.40997e-07
-3.86609e-05
-4.42938e-07
-3.87503e-05
-4.44576e-07
-3.88448e-05
-4.45884e-07
-3.89446e-05
-4.46803e-07
-3.90498e-05
-4.47287e-07
-3.91607e-05
-4.47352e-07
-3.92772e-05
-4.46873e-07
-3.93996e-05
-4.45926e-07
-3.95279e-05
-4.44604e-07
-3.96621e-05
-4.42802e-07
-3.98022e-05
-4.40473e-07
-3.99482e-05
-4.37612e-07
-4.01002e-05
-4.34216e-07
-4.0258e-05
-4.30282e-07
-4.04216e-05
-4.25839e-07
-4.05908e-05
-4.2091e-07
-4.07655e-05
-4.15563e-07
-4.09455e-05
-4.09882e-07
-4.11306e-05
-4.03959e-07
-4.13203e-05
-3.9794e-07
-4.15146e-05
-3.92027e-07
-4.17129e-05
-3.86492e-07
-4.19148e-05
-3.81696e-07
-4.212e-05
-3.78115e-07
-4.23279e-05
-3.76411e-07
-4.2538e-05
-3.77402e-07
-4.27496e-05
-3.82088e-07
-4.2962e-05
-3.91524e-07
-4.31746e-05
-4.06842e-07
-4.33867e-05
-4.2943e-07
-4.35974e-05
-4.60825e-07
-4.38061e-05
-5.02703e-07
-4.40119e-05
-5.56864e-07
-4.42141e-05
-6.24596e-07
-4.44121e-05
-7.06295e-07
-4.46058e-05
-8.01672e-07
-4.47951e-05
-9.08688e-07
-4.49802e-05
-1.02246e-06
-4.51614e-05
-1.13377e-06
-4.53386e-05
-1.22688e-06
-4.55101e-05
-1.27666e-06
-4.56704e-05
-1.24543e-06
-4.58079e-05
-1.08034e-06
-4.58983e-05
-7.00554e-07
-4.59413e-05
-1.23129e-08
-4.59652e-05
1.31714e-06
-4.60023e-05
3.5312e-06
-4.60529e-05
7.55522e-06
-4.58e-05
1.502e-05
2.75951e-05
-4.29798e-05
-4.08673e-05
-8.83659e-08
-4.08765e-05
-1.64201e-07
-4.0892e-05
-2.11406e-07
-4.09108e-05
-2.40485e-07
-4.09316e-05
-2.58481e-07
-4.09541e-05
-2.69653e-07
-4.09782e-05
-2.76842e-07
-4.10038e-05
-2.8165e-07
-4.10309e-05
-2.85105e-07
-4.10596e-05
-2.87739e-07
-4.109e-05
-2.8992e-07
-4.11221e-05
-2.91807e-07
-4.11559e-05
-2.93531e-07
-4.11915e-05
-2.95132e-07
-4.1229e-05
-2.96652e-07
-4.12684e-05
-2.98091e-07
-4.13098e-05
-2.99468e-07
-4.13533e-05
-3.0077e-07
-4.13988e-05
-3.01985e-07
-4.14465e-05
-3.03094e-07
-4.14964e-05
-3.04158e-07
-4.15485e-05
-3.05219e-07
-4.1603e-05
-3.06286e-07
-4.16599e-05
-3.07305e-07
-4.17193e-05
-3.08077e-07
-4.17812e-05
-3.0876e-07
-4.18459e-05
-3.09519e-07
-4.19132e-05
-3.10243e-07
-4.19832e-05
-3.10937e-07
-4.20561e-05
-3.11596e-07
-4.21318e-05
-3.12225e-07
-4.22104e-05
-3.12821e-07
-4.2292e-05
-3.13392e-07
-4.23765e-05
-3.13928e-07
-4.24641e-05
-3.14446e-07
-4.25547e-05
-3.14961e-07
-4.26483e-05
-3.15481e-07
-4.2745e-05
-3.16011e-07
-4.28448e-05
-3.16563e-07
-4.29476e-05
-3.17133e-07
-4.30534e-05
-3.17728e-07
-4.31623e-05
-3.18351e-07
-4.32742e-05
-3.18996e-07
-4.3389e-05
-3.1966e-07
-4.35068e-05
-3.20336e-07
-4.36275e-05
-3.20998e-07
-4.3751e-05
-3.21621e-07
-4.38773e-05
-3.22188e-07
-4.40064e-05
-3.22718e-07
-4.41383e-05
-3.23199e-07
-4.42728e-05
-3.2357e-07
-4.44101e-05
-3.23753e-07
-4.455e-05
-3.23714e-07
-4.46924e-05
-3.23385e-07
-4.48374e-05
-3.22727e-07
-4.49848e-05
-3.21732e-07
-4.51347e-05
-3.20276e-07
-4.52871e-05
-3.18286e-07
-4.54421e-05
-3.15789e-07
-4.55999e-05
-3.12787e-07
-4.57603e-05
-3.09286e-07
-4.59234e-05
-3.05281e-07
-4.60891e-05
-3.00765e-07
-4.62574e-05
-2.95724e-07
-4.64282e-05
-2.90177e-07
-4.66015e-05
-2.84142e-07
-4.67773e-05
-2.77676e-07
-4.69555e-05
-2.70868e-07
-4.7136e-05
-2.63796e-07
-4.73188e-05
-2.56607e-07
-4.75039e-05
-2.4951e-07
-4.76911e-05
-2.42776e-07
-4.78804e-05
-2.36791e-07
-4.80716e-05
-2.32052e-07
-4.82645e-05
-2.29269e-07
-4.84591e-05
-2.293e-07
-4.86549e-05
-2.33194e-07
-4.88517e-05
-2.42053e-07
-4.90492e-05
-2.5697e-07
-4.92471e-05
-2.79343e-07
-4.94453e-05
-3.10706e-07
-4.96435e-05
-3.52623e-07
-4.98414e-05
-4.07014e-07
-5.00388e-05
-4.75216e-07
-5.02358e-05
-5.57175e-07
-5.04325e-05
-6.52658e-07
-5.0629e-05
-7.59624e-07
-5.08252e-05
-8.73313e-07
-5.10206e-05
-9.8508e-07
-5.1213e-05
-1.08059e-06
-5.13976e-05
-1.13766e-06
-5.1564e-05
-1.12393e-06
-5.16941e-05
-9.94248e-07
-5.17484e-05
-6.89363e-07
-5.17227e-05
-8.00202e-08
-5.15394e-05
1.09229e-06
-5.11686e-05
3.11788e-06
-5.04358e-05
6.77712e-06
-4.87302e-05
1.32628e-05
2.29699e-05
-4.41675e-05
-4.39809e-05
-7.75867e-08
-4.40137e-05
-1.31368e-07
-4.40584e-05
-1.6683e-07
-4.41098e-05
-1.89099e-07
-4.41658e-05
-2.02605e-07
-4.42251e-05
-2.10512e-07
-4.42869e-05
-2.15072e-07
-4.43511e-05
-2.1761e-07
-4.44174e-05
-2.18981e-07
-4.44857e-05
-2.19646e-07
-4.45559e-05
-2.19921e-07
-4.4628e-05
-2.19943e-07
-4.4702e-05
-2.19828e-07
-4.47778e-05
-2.19614e-07
-4.48555e-05
-2.19344e-07
-4.4935e-05
-2.19008e-07
-4.50164e-05
-2.18633e-07
-4.50995e-05
-2.18201e-07
-4.51844e-05
-2.17722e-07
-4.52711e-05
-2.17181e-07
-4.53594e-05
-2.16637e-07
-4.54495e-05
-2.16093e-07
-4.55413e-05
-2.1557e-07
-4.56348e-05
-2.15047e-07
-4.573e-05
-2.14328e-07
-4.58269e-05
-2.13368e-07
-4.59259e-05
-2.12308e-07
-4.60269e-05
-2.1118e-07
-4.613e-05
-2.10062e-07
-4.62352e-05
-2.08957e-07
-4.63423e-05
-2.0789e-07
-4.64513e-05
-2.06851e-07
-4.65623e-05
-2.05861e-07
-4.66752e-05
-2.04909e-07
-4.67899e-05
-2.04035e-07
-4.69063e-05
-2.03252e-07
-4.70244e-05
-2.02588e-07
-4.7144e-05
-2.02042e-07
-4.72653e-05
-2.01629e-07
-4.7388e-05
-2.01348e-07
-4.7512e-05
-2.01211e-07
-4.76374e-05
-2.01213e-07
-4.77641e-05
-2.01351e-07
-4.78919e-05
-2.01614e-07
-4.80208e-05
-2.01995e-07
-4.81508e-05
-2.02465e-07
-4.82818e-05
-2.03003e-07
-4.84138e-05
-2.03578e-07
-4.85466e-05
-2.04219e-07
-4.86803e-05
-2.04866e-07
-4.88148e-05
-2.05477e-07
-4.89501e-05
-2.05972e-07
-4.90862e-05
-2.06321e-07
-4.9223e-05
-2.0644e-07
-4.93605e-05
-2.06281e-07
-4.94987e-05
-2.05753e-07
-4.96376e-05
-2.04836e-07
-4.97771e-05
-2.03532e-07
-4.99171e-05
-2.01754e-07
-5.00576e-05
-1.99445e-07
-5.01987e-05
-1.96593e-07
-5.03405e-05
-1.93186e-07
-5.04829e-05
-1.89201e-07
-5.06261e-05
-1.84607e-07
-5.07702e-05
-1.79383e-07
-5.09152e-05
-1.73539e-07
-5.10612e-05
-1.67124e-07
-5.12085e-05
-1.60206e-07
-5.13572e-05
-1.52823e-07
-5.15073e-05
-1.4511e-07
-5.16592e-05
-1.37274e-07
-5.18129e-05
-1.29599e-07
-5.19687e-05
-1.2247e-07
-5.21265e-05
-1.16384e-07
-5.22867e-05
-1.12049e-07
-5.24493e-05
-1.10356e-07
-5.26144e-05
-1.12398e-07
-5.2782e-05
-1.19314e-07
-5.29522e-05
-1.32078e-07
-5.31253e-05
-1.52084e-07
-5.33014e-05
-1.8087e-07
-5.34808e-05
-2.19752e-07
-5.36639e-05
-2.70856e-07
-5.38502e-05
-3.35969e-07
-5.40406e-05
-4.14122e-07
-5.42351e-05
-5.05575e-07
-5.44338e-05
-6.08532e-07
-5.4636e-05
-7.18715e-07
-5.48401e-05
-8.28566e-07
-5.50424e-05
-9.25863e-07
-5.52352e-05
-9.92274e-07
-5.54044e-05
-1.00188e-06
-5.55267e-05
-9.18887e-07
-5.55596e-05
-7.02838e-07
-5.54566e-05
-2.28823e-07
-5.51121e-05
7.02168e-07
-5.43994e-05
2.35815e-06
-5.30104e-05
5.33694e-06
-5.02269e-05
1.04202e-05
1.73394e-05
-4.46607e-05
-4.69281e-05
-5.49611e-08
-4.69754e-05
-8.41784e-08
-4.70364e-05
-1.05916e-07
-4.71059e-05
-1.19687e-07
-4.7181e-05
-1.27656e-07
-4.72598e-05
-1.3184e-07
-4.73413e-05
-1.33695e-07
-4.74249e-05
-1.34171e-07
-4.75103e-05
-1.3383e-07
-4.75971e-05
-1.33024e-07
-4.76854e-05
-1.3196e-07
-4.77749e-05
-1.30749e-07
-4.78656e-05
-1.29466e-07
-4.79575e-05
-1.28137e-07
-4.80505e-05
-1.26799e-07
-4.81446e-05
-1.25434e-07
-4.82398e-05
-1.24076e-07
-4.8336e-05
-1.22694e-07
-4.84331e-05
-1.21319e-07
-4.85313e-05
-1.19925e-07
-4.86303e-05
-1.18567e-07
-4.87303e-05
-1.17227e-07
-4.88312e-05
-1.15913e-07
-4.89331e-05
-1.14502e-07
-4.90359e-05
-1.1311e-07
-4.91393e-05
-1.1172e-07
-4.92432e-05
-1.10312e-07
-4.93476e-05
-1.08875e-07
-4.94525e-05
-1.07531e-07
-4.95578e-05
-1.06264e-07
-4.96635e-05
-1.0513e-07
-4.97694e-05
-1.04074e-07
-4.98757e-05
-1.03139e-07
-4.99821e-05
-1.02293e-07
-5.00887e-05
-1.0159e-07
-5.01955e-05
-1.01035e-07
-5.03025e-05
-1.00662e-07
-5.04095e-05
-1.00463e-07
-5.05165e-05
-1.00436e-07
-5.06237e-05
-1.00583e-07
-5.07309e-05
-1.00907e-07
-5.08381e-05
-1.01402e-07
-5.09454e-05
-1.02056e-07
-5.10527e-05
-1.02855e-07
-5.11601e-05
-1.03787e-07
-5.12676e-05
-1.04822e-07
-5.13752e-05
-1.05935e-07
-5.14829e-05
-1.07098e-07
-5.15908e-05
-1.08317e-07
-5.16988e-05
-1.09539e-07
-5.1807e-05
-1.10714e-07
-5.19155e-05
-1.11768e-07
-5.20242e-05
-1.12661e-07
-5.21333e-05
-1.13318e-07
-5.22426e-05
-1.13678e-07
-5.23524e-05
-1.13636e-07
-5.24626e-05
-1.13207e-07
-5.25732e-05
-1.12433e-07
-5.26842e-05
-1.11206e-07
-5.27957e-05
-1.09413e-07
-5.29076e-05
-1.06996e-07
-5.30203e-05
-1.03918e-07
-5.31338e-05
-1.00144e-07
-5.32482e-05
-9.56487e-08
-5.33637e-05
-9.03397e-08
-5.34805e-05
-8.42204e-08
-5.35989e-05
-7.73422e-08
-5.37189e-05
-6.97752e-08
-5.38409e-05
-6.15056e-08
-5.3965e-05
-5.26656e-08
-5.40916e-05
-4.34459e-08
-5.42208e-05
-3.41249e-08
-5.43529e-05
-2.50984e-08
-5.44881e-05
-1.68785e-08
-5.46267e-05
-1.01223e-08
-5.47689e-05
-5.71185e-09
-5.4915e-05
-4.76998e-09
-5.5065e-05
-8.5639e-09
-5.52194e-05
-1.7824e-08
-5.53784e-05
-3.39148e-08
-5.55424e-05
-5.85605e-08
-5.57119e-05
-9.25746e-08
-5.58876e-05
-1.38104e-07
-5.60687e-05
-1.9859e-07
-5.62565e-05
-2.70715e-07
-5.64509e-05
-3.56112e-07
-5.66517e-05
-4.53383e-07
-5.68579e-05
-5.58885e-07
-5.70668e-05
-6.66614e-07
-5.72735e-05
-7.66863e-07
-5.74684e-05
-8.45804e-07
-5.76349e-05
-8.84501e-07
-5.77454e-05
-8.58193e-07
-5.77606e-05
-7.3821e-07
-5.75975e-05
-4.43036e-07
-5.71237e-05
1.77198e-07
-5.61459e-05
1.32834e-06
-5.4257e-05
3.39144e-06
-5.07313e-05
6.83051e-06
1.11905e-05
-4.46447e-05
-4.93141e-05
-2.23809e-08
-4.93668e-05
-3.1538e-08
-4.94324e-05
-4.04046e-08
-4.95064e-05
-4.58439e-08
-4.95855e-05
-4.86612e-08
-4.96677e-05
-4.97529e-08
-4.97518e-05
-4.97832e-08
-4.98369e-05
-4.92113e-08
-4.99227e-05
-4.82915e-08
-5.00087e-05
-4.7205e-08
-5.00949e-05
-4.60374e-08
-5.01811e-05
-4.48516e-08
-5.02673e-05
-4.36702e-08
-5.03533e-05
-4.25109e-08
-5.04392e-05
-4.13807e-08
-5.05248e-05
-4.02745e-08
-5.06103e-05
-3.91999e-08
-5.06954e-05
-3.8143e-08
-5.07803e-05
-3.71177e-08
-5.08649e-05
-3.61166e-08
-5.09492e-05
-3.51616e-08
-5.10331e-05
-3.4247e-08
-5.11168e-05
-3.33605e-08
-5.12e-05
-3.24072e-08
-5.12829e-05
-3.15616e-08
-5.13651e-05
-3.08734e-08
-5.14467e-05
-3.029e-08
-5.15276e-05
-2.9732e-08
-5.16077e-05
-2.92701e-08
-5.16872e-05
-2.88829e-08
-5.17659e-05
-2.86262e-08
-5.1844e-05
-2.84234e-08
-5.19215e-05
-2.82934e-08
-5.19984e-05
-2.82098e-08
-5.20749e-05
-2.8239e-08
-5.21509e-05
-2.83675e-08
-5.22265e-05
-2.8641e-08
-5.23018e-05
-2.90395e-08
-5.23769e-05
-2.95489e-08
-5.24518e-05
-3.01808e-08
-5.25266e-05
-3.09278e-08
-5.26014e-05
-3.17855e-08
-5.26762e-05
-3.2738e-08
-5.27512e-05
-3.37708e-08
-5.28264e-05
-3.48687e-08
-5.29019e-05
-3.60058e-08
-5.29777e-05
-3.71553e-08
-5.3054e-05
-3.83107e-08
-5.31309e-05
-3.94199e-08
-5.32085e-05
-4.04649e-08
-5.32867e-05
-4.13972e-08
-5.33658e-05
-4.21604e-08
-5.34457e-05
-4.26896e-08
-5.35266e-05
-4.29204e-08
-5.36085e-05
-4.27882e-08
-5.36915e-05
-4.22219e-08
-5.37757e-05
-4.12047e-08
-5.38612e-05
-3.97272e-08
-5.39482e-05
-3.77121e-08
-5.40366e-05
-3.50561e-08
-5.41265e-05
-3.1696e-08
-5.42182e-05
-2.75786e-08
-5.43117e-05
-2.26649e-08
-5.44072e-05
-1.69193e-08
-5.45046e-05
-1.02833e-08
-5.46042e-05
-2.7339e-09
-5.47063e-05
5.92737e-09
-5.48108e-05
1.52444e-08
-5.49181e-05
2.54349e-08
-5.50282e-05
3.63743e-08
-5.51414e-05
4.78759e-08
-5.52578e-05
5.96717e-08
-5.53777e-05
7.13688e-08
-5.55013e-05
8.24579e-08
-5.56289e-05
9.2304e-08
-5.57605e-05
1.0004e-07
-5.58966e-05
1.04592e-07
-5.60376e-05
1.04924e-07
-5.61838e-05
1.0009e-07
-5.63355e-05
8.87078e-08
-5.64931e-05
6.93093e-08
-5.66563e-05
4.03061e-08
-5.68274e-05
2.06811e-09
-5.70042e-05
-5.32801e-08
-5.71893e-05
-1.17843e-07
-5.73822e-05
-1.96329e-07
-5.7582e-05
-2.87496e-07
-5.77877e-05
-3.88139e-07
-5.7996e-05
-4.9438e-07
-5.82011e-05
-5.99104e-07
-5.83925e-05
-6.93388e-07
-5.85524e-05
-7.65379e-07
-5.86519e-05
-8.01729e-07
-5.86504e-05
-7.85411e-07
-5.84603e-05
-6.82145e-07
-5.79192e-05
-4.16408e-07
-5.67706e-05
1.26633e-07
-5.45642e-05
1.13149e-06
-5.05883e-05
2.79822e-06
4.84111e-06
-4.4286e-05
-5.06978e-05
1.66663e-08
-5.07485e-05
1.90756e-08
-5.08105e-05
2.15355e-08
-5.08797e-05
2.33171e-08
-5.0953e-05
2.45259e-08
-5.10283e-05
2.53675e-08
-5.11041e-05
2.59277e-08
-5.11798e-05
2.63075e-08
-5.12548e-05
2.65457e-08
-5.13288e-05
2.66765e-08
-5.14018e-05
2.67254e-08
-5.14736e-05
2.67059e-08
-5.15441e-05
2.66441e-08
-5.16135e-05
2.6544e-08
-5.16816e-05
2.64297e-08
-5.17485e-05
2.63e-08
-5.18143e-05
2.61789e-08
-5.18789e-05
2.60583e-08
-5.19424e-05
2.59586e-08
-5.20049e-05
2.58588e-08
-5.20664e-05
2.5776e-08
-5.2127e-05
2.56883e-08
-5.21867e-05
2.56414e-08
-5.22455e-05
2.56322e-08
-5.23035e-05
2.56043e-08
-5.23608e-05
2.55101e-08
-5.24175e-05
2.53998e-08
-5.24736e-05
2.52862e-08
-5.25292e-05
2.51654e-08
-5.25844e-05
2.50071e-08
-5.26392e-05
2.47803e-08
-5.26936e-05
2.45375e-08
-5.27479e-05
2.43645e-08
-5.28021e-05
2.4219e-08
-5.28562e-05
2.40243e-08
-5.29104e-05
2.37838e-08
-5.29647e-05
2.34735e-08
-5.30192e-05
2.31092e-08
-5.3074e-05
2.27003e-08
-5.31291e-05
2.22412e-08
-5.31847e-05
2.17373e-08
-5.32407e-05
2.11955e-08
-5.32974e-05
2.06281e-08
-5.33547e-05
2.00517e-08
-5.34127e-05
1.94787e-08
-5.34716e-05
1.89321e-08
-5.35314e-05
1.84389e-08
-5.35921e-05
1.8002e-08
-5.36539e-05
1.76851e-08
-5.37167e-05
1.7495e-08
-5.37808e-05
1.74803e-08
-5.38461e-05
1.76918e-08
-5.39128e-05
1.81943e-08
-5.39808e-05
1.90505e-08
-5.40503e-05
2.03219e-08
-5.41212e-05
2.20713e-08
-5.41937e-05
2.43358e-08
-5.42678e-05
2.71476e-08
-5.43437e-05
3.05633e-08
-5.44214e-05
3.46853e-08
-5.45009e-05
3.95772e-08
-5.45824e-05
4.53026e-08
-5.46659e-05
5.19106e-08
-5.47515e-05
5.94575e-08
-5.48393e-05
6.79332e-08
-5.49295e-05
7.75008e-08
-5.50221e-05
8.82515e-08
-5.51175e-05
9.99579e-08
-5.52156e-05
1.1267e-07
-5.53168e-05
1.26311e-07
-5.54212e-05
1.40708e-07
-5.55291e-05
1.55616e-07
-5.56405e-05
1.70659e-07
-5.57558e-05
1.85351e-07
-5.58752e-05
1.9906e-07
-5.5999e-05
2.1095e-07
-5.61275e-05
2.20025e-07
-5.62612e-05
2.253e-07
-5.64003e-05
2.25708e-07
-5.65451e-05
2.19893e-07
-5.66959e-05
2.06422e-07
-5.68531e-05
1.83526e-07
-5.70153e-05
1.50254e-07
-5.71864e-05
1.03762e-07
-5.73637e-05
4.57232e-08
-5.75479e-05
-2.54528e-08
-5.77391e-05
-1.09376e-07
-5.79355e-05
-2.04578e-07
-5.8133e-05
-3.09463e-07
-5.83257e-05
-4.18883e-07
-5.85021e-05
-5.29272e-07
-5.8644e-05
-6.35797e-07
-5.87233e-05
-7.35006e-07
-5.86942e-05
-8.27759e-07
-5.84755e-05
-9.15294e-07
-5.79037e-05
-1.00522e-06
-5.66946e-05
-1.10352e-06
-5.43631e-05
-1.22231e-06
-5.02026e-05
-1.38047e-06
-1.51446e-06
-4.38526e-05
-5.04555e-05
5.46532e-08
-5.05068e-05
7.03556e-08
-5.05699e-05
8.45499e-08
-5.06404e-05
9.37657e-08
-5.07152e-05
9.92588e-08
-5.07921e-05
1.02287e-07
-5.087e-05
1.03713e-07
-5.09479e-05
1.04162e-07
-5.10255e-05
1.03976e-07
-5.11023e-05
1.03394e-07
-5.11782e-05
1.02551e-07
-5.12532e-05
1.01542e-07
-5.13271e-05
1.00431e-07
-5.14e-05
9.92549e-08
-5.14717e-05
9.80521e-08
-5.15425e-05
9.6835e-08
-5.16121e-05
9.56363e-08
-5.16808e-05
9.44519e-08
-5.17484e-05
9.33103e-08
-5.1815e-05
9.21917e-08
-5.18806e-05
9.11232e-08
-5.19454e-05
9.00779e-08
-5.20092e-05
8.91077e-08
-5.20722e-05
8.81731e-08
-5.21343e-05
8.72931e-08
-5.21957e-05
8.64035e-08
-5.22564e-05
8.55706e-08
-5.23164e-05
8.47488e-08
-5.23759e-05
8.39878e-08
-5.24347e-05
8.3217e-08
-5.24931e-05
8.24055e-08
-5.25509e-05
8.15794e-08
-5.26084e-05
8.09776e-08
-5.26656e-05
8.04673e-08
-5.27225e-05
7.99789e-08
-5.27793e-05
7.94719e-08
-5.28359e-05
7.89971e-08
-5.28926e-05
7.85413e-08
-5.29493e-05
7.80929e-08
-5.30061e-05
7.76719e-08
-5.30632e-05
7.72856e-08
-5.31205e-05
7.69382e-08
-5.31782e-05
7.66398e-08
-5.32363e-05
7.6408e-08
-5.3295e-05
7.62529e-08
-5.33543e-05
7.61966e-08
-5.34142e-05
7.6264e-08
-5.34749e-05
7.64706e-08
-5.35364e-05
7.68569e-08
-5.35988e-05
7.74455e-08
-5.36622e-05
7.82768e-08
-5.37266e-05
7.94022e-08
-5.37921e-05
8.08799e-08
-5.38588e-05
8.27762e-08
-5.39267e-05
8.51588e-08
-5.39959e-05
8.8081e-08
-5.40665e-05
9.15905e-08
-5.41385e-05
9.57286e-08
-5.42121e-05
1.00558e-07
-5.42873e-05
1.06167e-07
-5.43641e-05
1.12631e-07
-5.44427e-05
1.20017e-07
-5.45232e-05
1.28393e-07
-5.46056e-05
1.37807e-07
-5.46902e-05
1.48312e-07
-5.47769e-05
1.60028e-07
-5.4866e-05
1.72996e-07
-5.49575e-05
1.87149e-07
-5.50517e-05
2.02491e-07
-5.51487e-05
2.18964e-07
-5.52488e-05
2.36414e-07
-5.53522e-05
2.54616e-07
-5.5459e-05
2.73223e-07
-5.55697e-05
2.91767e-07
-5.56844e-05
3.09635e-07
-5.58035e-05
3.26029e-07
-5.59273e-05
3.40022e-07
-5.60563e-05
3.50641e-07
-5.61907e-05
3.56771e-07
-5.6331e-05
3.57089e-07
-5.64775e-05
3.50118e-07
-5.66308e-05
3.34333e-07
-5.67909e-05
3.08257e-07
-5.69588e-05
2.69968e-07
-5.71333e-05
2.19039e-07
-5.73146e-05
1.55098e-07
-5.75014e-05
7.75099e-08
-5.76913e-05
-1.36172e-08
-5.78816e-05
-1.16925e-07
-5.80662e-05
-2.30926e-07
-5.82335e-05
-3.57372e-07
-5.83651e-05
-4.98182e-07
-5.84338e-05
-6.58642e-07
-5.8394e-05
-8.58107e-07
-5.81625e-05
-1.13541e-06
-5.75892e-05
-1.56484e-06
-5.63969e-05
-2.27951e-06
-5.40963e-05
-3.50378e-06
-4.99968e-05
-5.45818e-06
-7.76157e-06
-4.37254e-05
-4.87504e-05
8.3319e-08
-4.88009e-05
1.20886e-07
-4.88642e-05
1.47781e-07
-4.89358e-05
1.65334e-07
-4.90127e-05
1.76137e-07
-4.90929e-05
1.82477e-07
-4.91753e-05
1.86054e-07
-4.92591e-05
1.87892e-07
-4.93438e-05
1.88664e-07
-4.94292e-05
1.88757e-07
-4.95151e-05
1.88423e-07
-4.96014e-05
1.87813e-07
-4.96881e-05
1.87023e-07
-4.9775e-05
1.86113e-07
-4.98622e-05
1.85127e-07
-4.99495e-05
1.84089e-07
-5.0037e-05
1.83025e-07
-5.01246e-05
1.81945e-07
-5.02123e-05
1.80862e-07
-5.03e-05
1.79775e-07
-5.03877e-05
1.78694e-07
-5.04754e-05
1.77607e-07
-5.05629e-05
1.76537e-07
-5.06504e-05
1.75462e-07
-5.07377e-05
1.74409e-07
-5.08249e-05
1.73343e-07
-5.09118e-05
1.72308e-07
-5.09986e-05
1.71253e-07
-5.10851e-05
1.70222e-07
-5.11713e-05
1.69153e-07
-5.12573e-05
1.6803e-07
-5.13429e-05
1.66834e-07
-5.1428e-05
1.65704e-07
-5.15124e-05
1.64504e-07
-5.15961e-05
1.63255e-07
-5.16791e-05
1.6197e-07
-5.17613e-05
1.60743e-07
-5.18429e-05
1.59548e-07
-5.19237e-05
1.58392e-07
-5.20039e-05
1.57302e-07
-5.20836e-05