/*--------------------------------*- C++ -*----------------------------------*\
| =========                 |                                                 |
| \\      /  F ield         | OpenFOAM: The Open Source CFD Toolbox           |
|  \\    /   O peration     | Version:  2.1.0                                 |
|   \\  /    A nd           | Web:      www.OpenFOAM.org                      |
|    \\/     M anipulation  |                                                 |
\*---------------------------------------------------------------------------*/
FoamFile
{
    version     2.0;
    format      ascii;
    class       volScalarField;
    location    "0.22";
    object      rho;
}
// * * * * * * * * * * * * * * * * * * * * * * * * * * * * * * * * * * * * * //

dimensions      [1 -3 0 0 0 0 0];

internalField   nonuniform List<scalar> 
6400
(
1000
1000
1000
1000
1000
1000
1000
1000
1000
999.999
999.999
999.999
999.999
999.999
999.999
999.999
999.998
999.998
999.998
999.997
999.997
999.996
999.996
999.995
999.994
999.993
999.992
999.991
999.99
999.988
999.986
999.984
999.982
999.979
999.976
999.972
999.968
999.964
999.959
999.953
999.947
999.94
999.932
999.923
999.912
999.901
999.889
999.875
999.859
999.842
999.824
999.803
999.78
999.755
999.727
999.697
999.664
999.627
999.587
999.543
999.495
999.443
999.386
999.324
999.256
999.182
999.102
999.015
998.921
998.819
998.708
998.588
998.458
998.317
998.165
998
997.82
997.625
997.413
997.181
996.928
996.652
996.351
996.023
995.668
995.286
994.88
994.457
994.032
993.632
993.31
993.175
993.442
994.439
996.208
995.75
987.382
973.338
964.192
960.527
1000
1000
999.999
999.999
999.999
999.999
999.999
999.999
999.998
999.998
999.998
999.998
999.997
999.997
999.996
999.995
999.995
999.994
999.993
999.991
999.99
999.988
999.986
999.984
999.982
999.979
999.976
999.972
999.968
999.964
999.958
999.952
999.945
999.937
999.929
999.919
999.908
999.895
999.881
999.865
999.847
999.827
999.805
999.78
999.753
999.722
999.688
999.65
999.608
999.562
999.511
999.455
999.393
999.325
999.25
999.167
999.077
998.977
998.868
998.749
998.619
998.476
998.32
998.15
997.964
997.762
997.541
997.301
997.039
996.754
996.445
996.108
995.743
995.346
994.916
994.449
993.943
993.394
992.801
992.16
991.469
990.725
989.926
989.071
988.16
987.195
986.177
985.108
983.992
982.826
981.599
980.279
978.792
977.005
974.73
971.854
968.448
964.629
961.34
959.126
999.999
999.999
999.999
999.999
999.998
999.998
999.998
999.997
999.997
999.996
999.996
999.995
999.994
999.993
999.992
999.991
999.989
999.987
999.985
999.983
999.98
999.977
999.973
999.969
999.964
999.959
999.953
999.946
999.938
999.929
999.918
999.907
999.894
999.879
999.862
999.844
999.823
999.799
999.772
999.743
999.709
999.672
999.631
999.584
999.533
999.476
999.412
999.342
999.264
999.178
999.083
998.978
998.862
998.734
998.594
998.44
998.271
998.086
997.883
997.661
997.419
997.154
996.866
996.551
996.208
995.836
995.431
994.991
994.514
993.997
993.437
992.831
992.178
991.472
990.713
989.897
989.022
988.087
987.091
986.034
984.917
983.742
982.515
981.239
979.922
978.572
977.196
975.805
974.406
973.006
971.609
970.216
968.819
967.408
965.967
964.487
962.905
961.2
959.508
957.979
999.999
999.998
999.998
999.998
999.997
999.997
999.996
999.995
999.994
999.993
999.992
999.991
999.989
999.987
999.985
999.983
999.98
999.977
999.973
999.969
999.964
999.958
999.952
999.944
999.936
999.926
999.915
999.903
999.889
999.873
999.855
999.835
999.811
999.785
999.756
999.723
999.686
999.645
999.598
999.546
999.488
999.423
999.351
999.27
999.18
999.081
998.971
998.848
998.713
998.564
998.399
998.218
998.019
997.8
997.56
997.297
997.01
996.697
996.356
995.984
995.581
995.143
994.67
994.158
993.606
993.013
992.375
991.692
990.962
990.184
989.358
988.483
987.561
986.591
985.576
984.518
983.42
982.287
981.123
979.933
978.723
977.499
976.268
975.036
973.808
972.591
971.389
970.208
969.051
967.92
966.818
965.744
964.698
963.675
962.671
961.682
960.656
959.581
958.47
957.344
999.997
999.997
999.996
999.996
999.995
999.994
999.993
999.992
999.99
999.989
999.987
999.984
999.982
999.979
999.975
999.971
999.966
999.961
999.955
999.947
999.939
999.93
999.919
999.906
999.892
999.876
999.858
999.837
999.814
999.787
999.757
999.723
999.685
999.642
999.593
999.539
999.478
999.409
999.333
999.248
999.153
999.047
998.93
998.799
998.655
998.496
998.32
998.127
997.914
997.68
997.425
997.146
996.841
996.51
996.15
995.76
995.339
994.884
994.396
993.872
993.311
992.713
992.077
991.402
990.689
989.938
989.149
988.323
987.462
986.566
985.639
984.683
983.7
982.693
981.666
980.621
979.563
978.494
977.419
976.341
975.263
974.189
973.12
972.061
971.013
969.978
968.959
967.957
966.973
966.009
965.067
964.147
963.252
962.383
961.542
960.733
959.92
959.104
958.289
957.509
999.996
999.995
999.994
999.993
999.992
999.99
999.989
999.987
999.984
999.982
999.979
999.975
999.971
999.966
999.96
999.954
999.946
999.938
999.928
999.917
999.904
999.889
999.872
999.853
999.832
999.807
999.779
999.748
999.712
999.672
999.626
999.575
999.518
999.454
999.383
999.303
999.213
999.114
999.004
998.882
998.747
998.599
998.435
998.255
998.057
997.841
997.606
997.349
997.07
996.768
996.442
996.09
995.711
995.305
994.871
994.407
993.914
993.391
992.837
992.252
991.637
990.992
990.317
989.613
988.881
988.122
987.337
986.528
985.696
984.843
983.971
983.082
982.178
981.261
980.333
979.396
978.453
977.504
976.553
975.6
974.647
973.696
972.747
971.802
970.861
969.926
968.996
968.074
967.159
966.254
965.361
964.483
963.624
962.79
961.988
961.23
960.505
959.82
959.209
958.765
999.994
999.993
999.991
999.99
999.988
999.986
999.983
999.98
999.977
999.973
999.969
999.963
999.957
999.951
999.943
999.934
999.923
999.911
999.898
999.882
999.865
999.845
999.823
999.797
999.769
999.736
999.7
999.659
999.613
999.562
999.505
999.442
999.371
999.293
999.206
999.11
999.004
998.888
998.76
998.621
998.468
998.301
998.12
997.923
997.71
997.48
997.232
996.965
996.679
996.372
996.045
995.696
995.325
994.931
994.515
994.076
993.613
993.126
992.616
992.083
991.527
990.947
990.345
989.721
989.076
988.409
987.723
987.017
986.293
985.552
984.795
984.022
983.235
982.436
981.625
980.804
979.973
979.134
978.287
977.433
976.574
975.708
974.838
973.962
973.081
972.194
971.302
970.405
969.504
968.6
967.696
966.797
965.909
965.043
964.21
963.431
962.727
962.111
961.655
961.521
999.992
999.99
999.988
999.987
999.984
999.982
999.978
999.975
999.971
999.966
999.961
999.954
999.947
999.939
999.93
999.919
999.908
999.894
999.879
999.862
999.843
999.821
999.797
999.769
999.739
999.705
999.668
999.626
999.58
999.529
999.473
999.411
999.344
999.269
999.188
999.1
999.004
998.899
998.786
998.663
998.531
998.388
998.235
998.07
997.894
997.706
997.505
997.291
997.063
996.822
996.566
996.295
996.009
995.708
995.39
995.057
994.706
994.339
993.955
993.553
993.134
992.696
992.241
991.767
991.276
990.766
990.238
989.692
989.128
988.547
987.949
987.335
986.704
986.058
985.397
984.722
984.033
983.33
982.615
981.886
981.145
980.39
979.621
978.837
978.037
977.22
976.383
975.526
974.647
973.748
972.828
971.893
970.948
970.006
969.081
968.2
967.444
966.823
966.447
966.542
999.991
999.989
999.987
999.985
999.983
999.98
999.977
999.974
999.97
999.965
999.96
999.954
999.947
999.94
999.931
999.922
999.911
999.899
999.886
999.871
999.855
999.837
999.817
999.794
999.77
999.743
999.714
999.681
999.646
999.608
999.566
999.52
999.47
999.417
999.359
999.296
999.228
999.155
999.077
998.993
998.903
998.807
998.704
998.595
998.478
998.354
998.222
998.082
997.934
997.777
997.612
997.437
997.253
997.059
996.855
996.641
996.416
996.18
995.934
995.676
995.407
995.127
994.834
994.53
994.214
993.887
993.547
993.195
992.83
992.454
992.064
991.663
991.249
990.822
990.383
989.931
989.466
988.989
988.499
987.996
987.481
986.953
986.413
985.86
985.289
984.696
984.078
983.432
982.753
982.039
981.285
980.49
979.654
978.778
977.869
976.938
976.041
975.358
974.952
975.082
999.992
999.991
999.99
999.988
999.986
999.984
999.982
999.979
999.976
999.973
999.969
999.965
999.96
999.955
999.949
999.943
999.936
999.928
999.919
999.909
999.899
999.887
999.874
999.86
999.845
999.828
999.809
999.789
999.768
999.744
999.718
999.691
999.661
999.628
999.594
999.556
999.516
999.472
999.426
999.376
999.323
999.267
999.207
999.143
999.075
999.002
998.926
998.845
998.759
998.669
998.574
998.474
998.369
998.259
998.143
998.022
997.895
997.763
997.625
997.482
997.332
997.177
997.017
996.85
996.678
996.5
996.317
996.129
995.935
995.737
995.535
995.328
995.118
994.905
994.689
994.47
994.248
994.025
993.8
993.572
993.343
993.11
992.873
992.63
992.386
992.142
991.896
991.642
991.38
991.106
990.818
990.516
990.196
989.856
989.493
989.103
988.676
988.225
987.93
987.973
999.995
999.995
999.994
999.993
999.992
999.991
999.989
999.988
999.986
999.984
999.982
999.98
999.977
999.975
999.971
999.968
999.964
999.96
999.955
999.95
999.944
999.938
999.931
999.923
999.915
999.906
999.896
999.886
999.874
999.862
999.848
999.834
999.818
999.801
999.783
999.763
999.742
999.72
999.696
999.67
999.643
999.614
999.583
999.55
999.516
999.479
999.441
999.4
999.357
999.312
999.265
999.216
999.165
999.111
999.055
998.997
998.937
998.875
998.811
998.745
998.677
998.607
998.536
998.464
998.39
998.316
998.241
998.165
998.09
998.015
997.94
997.867
997.796
997.727
997.661
997.598
997.539
997.484
997.434
997.389
997.35
997.316
997.288
997.265
997.248
997.235
997.227
997.231
997.246
997.271
997.308
997.358
997.422
997.504
997.606
997.73
997.877
998.049
998.242
998.446
999.998
999.997
999.997
999.996
999.996
999.995
999.995
999.994
999.993
999.992
999.991
999.99
999.989
999.988
999.986
999.985
999.983
999.981
999.979
999.976
999.974
999.971
999.968
999.964
999.961
999.957
999.952
999.948
999.943
999.937
999.931
999.925
999.918
999.91
999.902
999.894
999.885
999.875
999.865
999.854
999.843
999.83
999.817
999.804
999.79
999.775
999.759
999.743
999.726
999.708
999.69
999.671
999.652
999.632
999.611
999.59
999.569
999.547
999.525
999.504
999.482
999.46
999.438
999.417
999.396
999.376
999.357
999.339
999.322
999.306
999.293
999.281
999.271
999.264
999.26
999.258
999.26
999.265
999.273
999.284
999.299
999.317
999.338
999.361
999.386
999.414
999.442
999.47
999.499
999.53
999.564
999.6
999.637
999.676
999.716
999.755
999.794
999.831
999.864
999.892
999.999
999.999
999.998
999.998
999.998
999.998
999.997
999.997
999.997
999.996
999.996
999.995
999.995
999.994
999.994
999.993
999.992
999.991
999.99
999.989
999.988
999.987
999.986
999.985
999.983
999.982
999.98
999.978
999.976
999.974
999.972
999.969
999.967
999.964
999.961
999.958
999.955
999.952
999.949
999.945
999.941
999.937
999.933
999.929
999.925
999.92
999.916
999.911
999.906
999.901
999.896
999.891
999.886
999.881
999.876
999.871
999.867
999.862
999.857
999.853
999.849
999.845
999.841
999.838
999.835
999.833
999.831
999.829
999.829
999.829
999.83
999.831
999.834
999.837
999.841
999.846
999.852
999.858
999.866
999.874
999.883
999.892
999.901
999.91
999.92
999.929
999.937
999.945
999.953
999.959
999.964
999.97
999.975
999.98
999.984
999.987
999.991
999.993
999.995
999.997
999.999
999.999
999.999
999.999
999.999
999.999
999.999
999.999
999.999
999.998
999.998
999.998
999.998
999.998
999.997
999.997
999.997
999.996
999.996
999.996
999.995
999.995
999.994
999.994
999.993
999.992
999.992
999.991
999.99
999.99
999.989
999.988
999.987
999.986
999.986
999.985
999.984
999.983
999.982
999.981
999.98
999.978
999.977
999.976
999.975
999.974
999.973
999.972
999.971
999.97
999.969
999.968
999.967
999.966
999.966
999.965
999.964
999.964
999.963
999.963
999.963
999.963
999.963
999.963
999.963
999.963
999.964
999.964
999.965
999.966
999.967
999.968
999.97
999.971
999.973
999.975
999.977
999.979
999.981
999.983
999.985
999.987
999.989
999.99
999.992
999.994
999.995
999.996
999.997
999.998
999.998
999.999
999.999
999.999
999.999
1000
1000
1000
1000
1000
1000
1000
1000
1000
1000
1000
999.999
999.999
999.999
999.999
999.999
999.999
999.999
999.999
999.999
999.999
999.999
999.998
999.998
999.998
999.998
999.998
999.998
999.997
999.997
999.997
999.997
999.997
999.996
999.996
999.996
999.996
999.995
999.995
999.995
999.994
999.994
999.994
999.994
999.993
999.993
999.993
999.992
999.992
999.992
999.992
999.992
999.991
999.991
999.991
999.991
999.991
999.991
999.991
999.991
999.991
999.991
999.991
999.991
999.991
999.991
999.991
999.991
999.992
999.992
999.992
999.992
999.993
999.993
999.993
999.994
999.994
999.995
999.995
999.996
999.996
999.996
999.997
999.997
999.998
999.998
999.998
999.999
999.999
999.999
999.999
1000
1000
1000
1000
1000
1000
1000
1000
1000
1000
1000
1000
1000
1000
1000
1000
1000
1000
1000
1000
1000
1000
1000
1000
1000
1000
1000
1000
999.999
999.999
999.999
999.999
999.999
999.999
999.999
999.999
999.999
999.999
999.999
999.999
999.999
999.999
999.999
999.998
999.998
999.998
999.998
999.998
999.998
999.998
999.998
999.998
999.998
999.998
999.998
999.998
999.997
999.997
999.997
999.997
999.997
999.997
999.997
999.997
999.997
999.997
999.997
999.997
999.997
999.997
999.997
999.998
999.998
999.998
999.998
999.998
999.998
999.998
999.998
999.998
999.998
999.998
999.999
999.999
999.999
999.999
999.999
999.999
999.999
999.999
999.999
1000
1000
1000
1000
1000
1000
1000
1000
1000
1000
1000
1000
1000
1000
1000
1000
1000
1000
1000
1000
1000
1000
1000
1000
1000
1000
1000
1000
1000
1000
1000
1000
1000
1000
1000
1000
1000
1000
1000
1000
1000
1000
1000
1000
1000
1000
1000
1000
1000
999.999
999.999
999.999
999.999
999.999
999.999
999.999
999.999
999.999
999.999
999.999
999.999
999.999
999.999
999.999
999.999
999.999
999.999
999.999
999.999
999.999
999.999
999.999
999.999
999.999
999.999
999.999
999.999
999.999
999.999
999.999
999.999
999.999
999.999
999.999
999.999
999.999
999.999
1000
1000
1000
1000
1000
1000
1000
1000
1000
1000
1000
1000
1000
1000
1000
1000
1000
1000
1000
1000
1000
1000
1000
1000
1000
1000
1000
1000
1000
1000
1000
1000
1000
1000
1000
1000
1000
1000
1000
1000
1000
1000
1000
1000
1000
1000
1000
1000
1000
1000
1000
1000
1000
1000
1000
1000
1000
1000
1000
1000
1000
1000
1000
1000
1000
1000
1000
1000
1000
1000
1000
1000
1000
1000
1000
1000
1000
1000
1000
1000
1000
1000
1000
1000
1000
1000
1000
1000
1000
1000
1000
1000
1000
1000
1000
1000
1000
1000
1000
1000
1000
1000
1000
1000
1000
1000
1000
1000
1000
1000
1000
1000
1000
1000
1000
1000
1000
1000
1000
1000
1000
1000
1000
1000
1000
1000
1000
1000
1000
1000
1000
1000
1000
1000
1000
1000
1000
1000
1000
1000
1000
1000
1000
1000
1000
1000
1000
1000
1000
1000
1000
1000
1000
1000
1000
1000
1000
1000
1000
1000
1000
1000
1000
1000
1000
1000
1000
1000
1000
1000
1000
1000
1000
1000
1000
1000
1000
1000
1000
1000
1000
1000
1000
1000
1000
1000
1000
1000
1000
1000
1000
1000
1000
1000
1000
1000
1000
1000
1000
1000
1000
1000
1000
1000
1000
1000
1000
1000
1000
1000
1000
1000
1000
1000
1000
1000
1000
1000
1000
1000
1000
1000
1000
1000
1000
1000
1000
1000
1000
1000
1000
1000
1000
1000
1000
1000
1000
1000
1000
1000
1000
1000
1000
1000
1000
1000
1000
1000
1000
1000
1000
1000
1000
1000
1000
1000
1000
1000
1000
1000
1000
1000
1000
1000
1000
1000
1000
1000
1000
1000
1000
1000
1000
1000
1000
1000
1000
1000
1000
1000
1000
1000
1000
1000
1000
1000
1000
1000
1000
1000
1000
1000
1000
1000
1000
1000
1000
1000
1000
1000
1000
1000
1000
1000
1000
1000
1000
1000
1000
1000
1000
1000
1000
1000
1000
1000
1000
1000
1000
1000
1000
1000
1000
1000
1000
1000
1000
1000
1000
1000
1000
1000
1000
1000
1000
1000
959.283
954.084
953.145
953.228
953.576
953.989
954.423
954.874
955.36
955.914
956.586
957.449
958.612
960.219
962.465
965.575
969.804
975.437
982.747
992.014
957.551
954.176
953.728
954.012
954.481
954.993
955.523
956.078
956.682
957.377
958.218
959.289
960.699
962.592
965.141
968.534
972.978
978.677
985.781
994.413
956.388
954.587
954.578
955.043
955.63
956.251
956.894
957.575
958.326
959.192
960.236
961.542
963.219
965.396
968.216
971.83
976.395
982.043
988.788
996.488
956.122
955.469
955.811
956.433
957.139
957.88
958.658
959.492
960.418
961.485
962.754
964.309
966.245
968.668
971.691
975.429
980
985.45
991.658
998.072
956.877
956.973
957.579
958.347
959.182
960.061
960.996
962.009
963.133
964.414
965.907
967.686
969.828
972.412
975.531
979.278
983.714
988.783
994.259
999.103
958.767
959.322
960.133
961.048
962.028
963.067
964.176
965.376
966.692
968.152
969.811
971.729
973.967
976.594
979.687
983.3
987.42
991.918
996.46
999.656
962.085
962.922
963.905
964.968
966.095
967.283
968.534
969.855
971.266
972.805
974.518
976.451
978.654
981.186
984.089
987.373
990.978
994.724
998.141
999.894
967.509
968.503
969.59
970.732
971.913
973.12
974.365
975.655
977.022
978.502
980.119
981.902
983.885
986.105
988.589
991.322
994.226
997.049
999.226
999.974
976.084
977.015
977.991
978.985
979.981
980.99
982.027
983.106
984.239
985.427
986.693
988.05
989.534
991.162
992.973
994.946
996.97
998.717
999.757
999.991
988.545
989.059
989.599
990.142
990.686
991.25
991.814
992.382
992.951
993.534
994.137
994.775
995.468
996.235
997.103
998.065
998.983
999.649
999.949
999.996
998.642
998.688
998.748
998.82
998.908
998.994
999.078
999.163
999.247
999.334
999.42
999.513
999.605
999.709
999.805
999.88
999.935
999.97
999.996
999.999
999.909
999.909
999.911
999.914
999.92
999.926
999.933
999.941
999.948
999.955
999.962
999.97
999.977
999.984
999.99
999.994
999.997
999.999
1000
1000
999.997
999.997
999.997
999.997
999.997
999.997
999.997
999.997
999.998
999.998
999.998
999.999
999.999
999.999
1000
1000
1000
1000
1000
1000
1000
1000
1000
1000
1000
1000
1000
1000
1000
1000
1000
1000
1000
1000
1000
1000
1000
1000
1000
1000
1000
1000
1000
1000
1000
1000
1000
1000
1000
1000
1000
1000
1000
1000
1000
1000
1000
1000
1000
1000
1000
1000
1000
1000
1000
1000
1000
1000
1000
1000
1000
1000
1000
1000
1000
1000
1000
1000
1000
1000
1000
1000
1000
1000
1000
1000
1000
1000
1000
1000
1000
1000
1000
1000
1000
1000
1000
1000
1000
1000
1000
1000
1000
1000
1000
1000
1000
1000
1000
1000
1000
1000
1000
1000
1000
1000
1000
1000
1000
1000
1000
1000
1000
1000
1000
1000
1000
1000
1000
1000
1000
1000
1000
1000
1000
1000
1000
1000
1000
1000
1000
1000
1000
1000
1000
1000
1000
1000
1000
1000
1000
1000
1000
1000
1000
1000
1000
1000
1000
1000
944.555
944.555
944.555
944.555
944.555
944.555
944.555
944.555
944.555
944.555
944.555
944.555
944.555
944.555
944.555
944.555
944.555
944.555
944.555
944.555
944.555
944.555
944.555
944.555
944.555
944.555
944.555
944.555
944.555
944.555
944.555
944.555
944.555
944.555
944.555
944.555
944.555
944.555
944.555
944.555
944.555
944.555
944.555
944.555
944.555
944.555
944.555
944.555
944.555
944.555
944.555
944.555
944.555
944.555
944.555
944.555
944.555
944.555
944.555
944.555
944.555
944.555
944.555
944.555
944.555
944.555
944.555
944.555
944.555
944.555
944.555
944.555
944.555
944.555
944.555
944.555
944.555
944.555
944.555
944.555
944.555
944.555
944.555
944.555
944.555
944.555
944.555
944.555
944.555
944.555
944.555
944.555
944.555
944.555
944.555
944.555
944.555
944.555
944.555
944.555
944.555
944.555
944.555
944.555
944.555
944.555
944.555
944.555
944.555
944.555
944.555
944.555
944.555
944.555
944.555
944.555
944.555
944.555
944.555
944.555
944.555
944.555
944.555
944.555
944.555
944.555
944.555
944.555
944.555
944.555
944.555
944.555
944.555
944.555
944.555
944.555
944.555
944.555
944.555
944.555
944.555
944.555
944.555
944.555
944.555
944.555
944.555
944.555
944.555
944.555
944.555
944.555
944.555
944.555
944.555
944.555
944.555
944.555
944.555
944.555
944.555
944.555
944.555
944.555
944.555
944.555
944.555
944.555
944.555
944.555
944.555
944.555
944.555
944.555
944.555
944.555
944.555
944.555
944.555
944.555
944.555
944.555
944.555
944.555
944.555
944.555
944.555
944.555
944.555
944.555
944.555
944.555
944.555
944.555
944.555
944.555
944.555
944.555
944.555
944.555
944.555
944.555
944.555
944.555
944.555
944.555
944.555
944.555
944.555
944.555
944.555
944.555
944.555
944.555
944.555
944.555
944.555
944.555
944.555
944.555
944.555
944.555
944.555
944.555
944.555
944.555
944.555
944.555
944.555
944.555
944.555
944.555
944.555
944.555
944.555
944.555
944.555
944.555
944.555
944.555
944.555
944.555
944.555
944.555
944.555
944.555
944.555
944.555
944.555
944.555
944.555
944.555
944.555
944.555
944.555
944.555
944.555
944.555
944.555
944.555
944.555
944.555
944.555
944.555
944.555
944.555
944.555
944.555
944.555
944.555
944.555
944.555
944.555
944.555
944.555
944.555
944.555
944.555
944.555
944.555
944.555
944.555
944.555
944.555
944.555
944.555
944.555
944.555
944.555
944.555
944.555
944.555
944.555
944.555
944.555
944.555
944.555
944.555
944.555
944.555
944.555
944.555
944.555
944.555
944.555
944.555
944.555
944.555
944.555
944.555
944.555
944.555
944.555
944.555
944.555
944.555
944.555
944.555
944.555
944.555
944.555
944.555
944.555
944.555
944.555
944.555
944.555
944.555
944.555
944.555
944.555
944.555
944.555
944.555
944.555
944.555
944.555
944.555
944.555
944.555
944.555
944.555
944.555
944.555
944.555
944.555
944.555
944.555
944.555
944.555
944.555
944.555
944.555
944.555
944.555
944.555
944.555
944.555
944.555
944.555
944.555
944.555
944.555
944.555
944.555
944.555
944.555
944.555
944.555
944.555
944.555
944.555
944.555
944.555
944.555
944.555
944.555
944.555
944.555
944.555
944.555
944.555
944.555
944.555
944.555
944.555
944.555
944.555
944.555
944.555
944.555
944.555
944.555
944.555
944.555
944.555
944.555
944.555
944.555
944.555
944.555
944.555
944.555
944.555
944.555
944.555
944.555
944.555
944.555
944.555
944.555
944.555
944.555
944.555
944.555
944.555
944.555
944.555
944.555
944.555
944.555
944.555
944.555
944.555
944.555
944.555
944.555
944.555
944.555
944.555
944.555
944.555
944.555
944.555
944.555
944.555
944.555
944.555
944.555
944.555
944.555
944.555
944.555
944.555
944.555
944.555
944.555
944.555
944.555
944.555
944.555
944.555
944.555
944.555
944.555
944.555
944.555
944.555
944.555
944.555
944.555
944.555
944.555
944.555
944.555
944.555
944.555
944.555
944.555
944.555
944.555
944.555
944.555
944.555
944.555
944.555
944.555
944.555
944.555
944.555
944.555
944.555
944.555
944.555
944.555
944.555
944.555
944.555
944.555
944.555
944.555
944.555
944.555
944.555
944.555
944.555
944.555
944.555
944.555
944.555
944.555
944.555
944.555
944.555
944.555
944.555
944.555
944.555
944.555
944.555
944.555
944.555
944.555
944.555
944.555
944.555
944.555
944.555
944.555
944.555
944.555
944.555
944.555
944.555
944.555
944.555
944.555
944.555
944.555
944.555
944.555
944.555
944.555
944.555
944.555
944.555
944.555
944.555
944.555
944.555
944.555
944.555
944.555
944.555
944.555
944.555
944.555
944.555
944.555
944.555
944.555
944.555
944.555
944.555
944.555
944.555
944.555
944.555
944.555
944.555
944.555
944.555
944.555
944.555
944.555
944.555
944.555
944.555
944.555
944.555
944.555
944.555
944.555
944.555
944.555
944.555
944.555
944.555
944.555
944.555
944.555
944.555
944.555
944.555
944.555
944.555
944.555
944.555
944.555
944.555
944.555
944.555
944.555
944.555
944.555
944.555
944.555
944.555
944.555
944.555
944.555
944.555
944.555
944.555
944.555
944.555
944.555
944.555
944.555
944.555
944.555
944.555
944.555
944.555
944.555
944.555
944.555
944.555
944.555
944.555
944.555
944.555
944.555
944.555
944.555
944.555
944.555
944.555
944.555
944.555
944.555
944.555
944.555
944.555
944.555
944.555
944.555
944.555
944.555
944.555
944.555
944.555
944.555
944.555
944.555
944.555
944.555
944.555
944.555
944.555
944.555
944.555
944.555
944.555
944.555
944.555
944.555
944.555
944.555
944.555
944.555
944.555
944.555
944.555
944.555
944.555
944.555
944.555
944.555
944.555
944.555
944.555
944.555
944.555
944.555
944.555
944.555
944.555
944.555
944.555
944.555
944.555
944.555
944.555
944.555
944.555
944.555
944.555
944.555
944.555
944.555
944.555
944.555
944.555
944.555
944.555
944.555
944.555
944.555
944.555
944.555
944.555
944.555
944.555
944.555
944.555
944.555
944.555
944.555
944.555
944.555
944.555
944.555
944.555
944.555
944.555
944.555
944.555
944.555
944.555
944.555
944.555
944.555
944.555
944.555
944.555
944.555
944.555
944.555
944.555
944.555
944.555
944.555
944.555
944.555
944.555
944.555
944.555
944.555
944.555
944.555
944.555
944.555
944.555
944.555
944.555
944.555
944.555
944.555
944.555
944.555
944.555
944.555
944.555
944.555
944.555
944.555
944.555
944.555
944.555
944.555
944.555
944.555
944.555
944.555
944.555
944.555
944.555
944.555
944.555
944.555
944.555
944.555
944.555
944.555
944.555
944.555
944.555
944.555
944.555
944.555
944.555
944.555
944.555
944.555
944.555
944.555
944.555
944.555
944.555
944.555
944.555
944.555
944.555
944.555
944.555
944.555
944.555
944.555
944.555
944.555
944.555
944.555
944.555
944.555
944.555
944.555
944.555
944.555
944.555
944.555
944.555
944.555
944.555
944.555
944.555
944.555
944.555
944.555
944.555
944.555
944.555
944.555
944.555
944.555
944.555
944.555
944.555
944.555
944.555
944.555
944.555
944.555
944.555
944.555
944.555
944.555
944.555
944.555
944.555
944.555
944.555
944.555
944.555
944.555
944.555
944.555
944.555
944.555
944.555
944.555
944.555
944.555
944.555
944.555
944.555
944.555
944.555
944.555
944.555
944.555
944.555
944.555
944.555
944.555
944.555
944.555
944.555
944.555
944.555
944.555
944.555
944.555
944.555
944.555
944.555
944.555
944.555
944.555
944.555
944.555
944.555
944.555
944.555
944.555
944.555
944.555
944.555
944.555
944.555
944.555
944.555
944.555
944.555
944.555
944.555
944.555
944.555
944.555
944.555
944.555
944.555
944.555
944.555
944.555
944.555
944.555
944.555
944.555
944.555
944.555
944.555
944.555
944.555
944.555
944.555
944.555
944.555
944.555
944.555
944.555
944.555
944.555
944.555
944.555
944.555
944.555
944.555
944.555
944.555
944.555
944.555
944.555
944.555
944.555
944.555
944.555
944.555
944.555
944.555
944.555
944.555
944.555
944.555
944.555
944.555
944.555
944.555
944.555
944.555
944.555
944.555
944.555
944.555
944.555
944.555
944.555
944.555
944.555
944.555
944.555
944.555
944.555
944.555
944.555
944.555
944.555
944.555
944.555
944.555
944.555
944.555
944.555
944.555
944.555
944.555
944.555
944.555
944.555
944.555
944.555
944.555
944.555
944.555
944.555
944.555
944.555
944.555
944.555
944.555
944.555
944.555
944.555
944.555
944.555
944.555
944.555
944.555
944.555
944.555
944.555
944.555
944.555
944.555
944.555
944.555
944.555
944.555
944.555
944.555
944.555
944.555
944.555
944.555
944.555
944.555
944.555
944.555
944.555
944.555
944.555
944.555
944.555
944.555
944.555
944.555
944.555
944.555
944.555
944.555
944.555
944.555
944.555
944.555
944.555
944.555
944.555
944.555
944.555
944.555
944.555
944.555
944.555
944.555
944.555
944.555
944.555
944.555
944.555
944.555
944.555
944.555
944.555
944.555
944.555
944.555
944.555
944.555
944.555
944.555
944.555
944.555
944.555
944.555
944.555
944.555
944.555
944.555
944.555
944.555
944.555
944.555
944.555
944.555
944.555
944.555
944.555
944.555
944.555
944.555
944.555
944.555
944.555
944.555
944.555
944.555
944.555
944.555
944.555
944.555
944.555
944.555
944.555
944.555
944.555
944.555
944.555
944.555
944.555
944.555
944.555
944.555
944.555
944.555
944.555
944.555
944.555
944.555
944.555
944.555
944.555
944.555
944.555
944.555
944.555
944.555
944.555
944.555
944.555
944.555
944.555
944.555
944.555
944.555
944.555
944.555
944.555
944.555
944.555
944.555
944.555
944.555
944.555
944.555
944.555
944.555
944.555
944.555
944.555
944.555
944.555
944.555
944.555
944.555
944.555
944.555
944.555
944.555
944.555
944.555
944.555
944.555
944.555
944.555
944.555
944.555
944.555
944.555
944.555
944.555
944.556
944.555
944.555
944.555
944.555
944.555
944.555
944.555
944.555
944.555
944.555
944.555
944.555
944.555
944.555
944.555
944.555
944.555
944.555
944.556
944.557
944.555
944.555
944.555
944.555
944.555
944.555
944.555
944.555
944.555
944.555
944.555
944.555
944.555
944.555
944.555
944.555
944.555
944.555
944.557
944.558
944.555
944.555
944.555
944.555
944.555
944.555
944.555
944.555
944.555
944.555
944.555
944.555
944.555
944.555
944.555
944.555
944.555
944.555
944.558
944.56
944.556
944.555
944.555
944.555
944.555
944.555
944.555
944.555
944.555
944.555
944.555
944.555
944.555
944.555
944.555
944.555
944.555
944.556
944.56
944.563
944.556
944.555
944.555
944.555
944.555
944.555
944.555
944.555
944.555
944.555
944.555
944.555
944.555
944.555
944.555
944.555
944.555
944.556
944.563
944.569
944.557
944.555
944.555
944.555
944.555
944.555
944.555
944.555
944.555
944.555
944.555
944.555
944.555
944.555
944.555
944.555
944.555
944.557
944.569
944.576
944.559
944.556
944.555
944.555
944.555
944.555
944.555
944.555
944.555
944.555
944.555
944.555
944.555
944.555
944.555
944.555
944.556
944.559
944.576
944.588
944.561
944.557
944.556
944.555
944.555
944.555
944.555
944.555
944.555
944.555
944.555
944.555
944.555
944.555
944.555
944.556
944.557
944.561
944.588
944.605
944.565
944.558
944.556
944.556
944.556
944.556
944.556
944.556
944.556
944.556
944.556
944.556
944.556
944.556
944.556
944.556
944.558
944.565
944.605
944.63
944.571
944.56
944.557
944.556
944.556
944.556
944.556
944.556
944.556
944.556
944.556
944.556
944.556
944.556
944.556
944.557
944.56
944.57
944.63
944.664
944.578
944.562
944.558
944.557
944.557
944.557
944.557
944.557
944.557
944.557
944.557
944.557
944.557
944.557
944.557
944.558
944.562
944.578
944.664
944.712
944.589
944.566
944.56
944.558
944.558
944.558
944.558
944.558
944.558
944.558
944.558
944.558
944.558
944.558
944.558
944.56
944.566
944.589
944.712
944.777
944.605
944.571
944.562
944.56
944.56
944.56
944.56
944.56
944.56
944.56
944.56
944.56
944.56
944.56
944.56
944.562
944.571
944.605
944.777
944.865
944.626
944.578
944.566
944.563
944.562
944.562
944.562
944.562
944.562
944.562
944.562
944.562
944.562
944.562
944.563
944.566
944.578
944.626
944.866
944.982
944.655
944.588
944.571
944.566
944.565
944.565
944.565
944.565
944.565
944.565
944.565
944.565
944.565
944.565
944.566
944.571
944.588
944.655
944.982
945.134
944.694
944.601
944.578
944.572
944.57
944.569
944.569
944.569
944.569
944.569
944.569
944.569
944.569
944.57
944.572
944.578
944.602
944.694
945.135
945.329
944.745
944.62
944.587
944.578