/*--------------------------------*- C++ -*----------------------------------*\
| =========                 |                                                 |
| \\      /  F ield         | OpenFOAM: The Open Source CFD Toolbox           |
|  \\    /   O peration     | Version:  2.1.0                                 |
|   \\  /    A nd           | Web:      www.OpenFOAM.org                      |
|    \\/     M anipulation  |                                                 |
\*---------------------------------------------------------------------------*/
FoamFile
{
    version     2.0;
    format      ascii;
    class       volScalarField;
    location    "0.22";
    object      T;
}
// * * * * * * * * * * * * * * * * * * * * * * * * * * * * * * * * * * * * * //

dimensions      [0 0 0 1 0 0 0];

internalField   nonuniform List<scalar> 
6400
(
293.15
293.15
293.15
293.15
293.15
293.15
293.151
293.151
293.151
293.151
293.151
293.151
293.151
293.152
293.152
293.152
293.153
293.153
293.154
293.155
293.155
293.156
293.157
293.158
293.16
293.161
293.163
293.165
293.168
293.17
293.174
293.177
293.181
293.186
293.191
293.197
293.204
293.211
293.22
293.23
293.241
293.253
293.267
293.282
293.299
293.318
293.34
293.363
293.389
293.418
293.45
293.486
293.525
293.567
293.614
293.666
293.723
293.785
293.854
293.928
294.01
294.099
294.197
294.303
294.418
294.544
294.681
294.829
294.99
295.165
295.354
295.559
295.781
296.022
296.282
296.565
296.872
297.205
297.569
297.966
298.399
298.872
299.389
299.952
300.562
301.219
301.917
302.645
303.377
304.067
304.623
304.856
304.396
302.676
299.635
300.421
314.918
339.81
356.411
363.153
293.151
293.151
293.151
293.151
293.151
293.152
293.152
293.152
293.153
293.153
293.154
293.154
293.155
293.156
293.157
293.158
293.159
293.161
293.163
293.165
293.167
293.17
293.173
293.177
293.181
293.186
293.191
293.197
293.204
293.212
293.221
293.232
293.243
293.257
293.271
293.288
293.307
293.329
293.353
293.38
293.41
293.444
293.482
293.524
293.571
293.624
293.682
293.746
293.817
293.896
293.983
294.079
294.185
294.301
294.429
294.57
294.724
294.894
295.08
295.284
295.507
295.75
296.017
296.308
296.625
296.972
297.349
297.761
298.209
298.697
299.228
299.805
300.433
301.115
301.855
302.659
303.532
304.477
305.502
306.61
307.807
309.098
310.485
311.973
313.56
315.246
317.027
318.9
320.862
322.916
325.083
327.42
330.058
333.242
337.311
342.483
348.648
355.611
361.652
365.745
293.151
293.152
293.152
293.152
293.153
293.153
293.154
293.155
293.155
293.156
293.157
293.159
293.16
293.162
293.164
293.166
293.169
293.172
293.175
293.18
293.184
293.19
293.196
293.203
293.211
293.22
293.231
293.243
293.256
293.271
293.289
293.309
293.331
293.356
293.384
293.416
293.452
293.493
293.538
293.589
293.645
293.709
293.779
293.858
293.946
294.044
294.152
294.272
294.405
294.552
294.714
294.893
295.091
295.309
295.548
295.811
296.1
296.417
296.764
297.143
297.558
298.012
298.506
299.046
299.634
300.274
300.969
301.726
302.547
303.438
304.404
305.45
306.58
307.802
309.118
310.536
312.058
313.687
315.427
317.277
319.237
321.301
323.465
325.719
328.052
330.451
332.9
335.385
337.892
340.407
342.924
345.442
347.973
350.538
353.165
355.87
358.773
361.911
365.036
367.871
293.153
293.153
293.154
293.154
293.155
293.156
293.157
293.158
293.16
293.161
293.163
293.166
293.168
293.171
293.175
293.179
293.184
293.19
293.196
293.203
293.212
293.221
293.232
293.245
293.259
293.275
293.294
293.315
293.339
293.366
293.397
293.432
293.471
293.516
293.566
293.622
293.685
293.756
293.835
293.924
294.023
294.134
294.257
294.394
294.547
294.717
294.905
295.114
295.345
295.6
295.881
296.191
296.532
296.907
297.317
297.767
298.259
298.796
299.381
300.019
300.711
301.464
302.279
303.16
304.112
305.137
306.239
307.422
308.687
310.037
311.473
312.997
314.607
316.302
318.081
319.938
321.869
323.867
325.925
328.033
330.181
332.36
334.557
336.763
338.965
341.154
343.321
345.455
347.552
349.605
351.612
353.571
355.485
357.359
359.202
361.022
362.915
364.901
366.96
369.05
293.154
293.155
293.156
293.157
293.159
293.16
293.162
293.164
293.167
293.169
293.173
293.177
293.181
293.186
293.192
293.199
293.207
293.217
293.227
293.24
293.254
293.27
293.288
293.309
293.333
293.361
293.392
293.427
293.467
293.512
293.564
293.622
293.687
293.76
293.843
293.936
294.04
294.157
294.287
294.432
294.595
294.775
294.975
295.198
295.444
295.716
296.016
296.347
296.711
297.111
297.548
298.026
298.548
299.117
299.734
300.404
301.128
301.909
302.751
303.654
304.622
305.655
306.755
307.923
309.16
310.465
311.837
313.276
314.78
316.345
317.968
319.647
321.376
323.15
324.964
326.812
328.689
330.588
332.502
334.427
336.355
338.282
340.201
342.109
344.001
345.872
347.719
349.54
351.33
353.088
354.81
356.493
358.135
359.732
361.28
362.773
364.273
365.784
367.294
368.744
293.157
293.158
293.16
293.162
293.164
293.166
293.169
293.173
293.177
293.181
293.187
293.193
293.2
293.208
293.218
293.229
293.241
293.256
293.273
293.292
293.314
293.339
293.367
293.4
293.437
293.479
293.526
293.58
293.641
293.709
293.787
293.874
293.971
294.08
294.203
294.339
294.491
294.66
294.848
295.056
295.287
295.541
295.821
296.128
296.466
296.835
297.238
297.678
298.155
298.673
299.233
299.837
300.487
301.185
301.933
302.731
303.581
304.484
305.441
306.451
307.516
308.634
309.806
311.029
312.303
313.627
314.997
316.412
317.87
319.366
320.899
322.464
324.059
325.68
327.323
328.985
330.662
332.351
334.049
335.752
337.459
339.167
340.873
342.576
344.274
345.967
347.651
349.327
350.991
352.64
354.271
355.878
357.452
358.984
360.459
361.854
363.194
364.459
365.589
366.411
293.161
293.163
293.165
293.168
293.171
293.174
293.179
293.184
293.189
293.196
293.204
293.212
293.223
293.234
293.248
293.263
293.281
293.301
293.324
293.35
293.38
293.414
293.452
293.495
293.544
293.599
293.661
293.731
293.809
293.896
293.993
294.102
294.222
294.356
294.504
294.667
294.848
295.046
295.264
295.503
295.764
296.049
296.359
296.695
297.06
297.454
297.879
298.336
298.827
299.353
299.915
300.514
301.152
301.828
302.545
303.302
304.1
304.94
305.821
306.744
307.708
308.712
309.757
310.842
311.965
313.126
314.323
315.556
316.823
318.122
319.451
320.809
322.194
323.603
325.036
326.489
327.961
329.451
330.957
332.477
334.011
335.558
337.117
338.689
340.273
341.869
343.478
345.099
346.731
348.371
350.014
351.651
353.269
354.853
356.378
357.806
359.099
360.232
361.071
361.318
293.164
293.167
293.17
293.173
293.177
293.182
293.187
293.193
293.2
293.208
293.217
293.228
293.24
293.254
293.269
293.287
293.307
293.33
293.356
293.385
293.418
293.455
293.497
293.543
293.595
293.652
293.716
293.787
293.866
293.952
294.048
294.153
294.269
294.396
294.534
294.685
294.849
295.028
295.221
295.431
295.657
295.9
296.162
296.444
296.745
297.067
297.411
297.778
298.168
298.581
299.02
299.485
299.976
300.493
301.039
301.613
302.216
302.848
303.51
304.203
304.927
305.683
306.471
307.29
308.142
309.027
309.943
310.892
311.873
312.885
313.928
315.001
316.104
317.235
318.394
319.579
320.79
322.027
323.288
324.575
325.886
327.223
328.587
329.979
331.402
332.859
334.352
335.885
337.459
339.074
340.727
342.413
344.118
345.822
347.499
349.098
350.473
351.604
352.289
352.115
293.166
293.168
293.171
293.175
293.179
293.184
293.189
293.195
293.202
293.21
293.218
293.229
293.24
293.253
293.267
293.283
293.301
293.322
293.344
293.369
293.397
293.428
293.462
293.5
293.542
293.588
293.638
293.693
293.753
293.819
293.89
293.968
294.053
294.144
294.243
294.35
294.466
294.59
294.723
294.867
295.02
295.185
295.36
295.547
295.747
295.959
296.184
296.423
296.677
296.945
297.228
297.528
297.843
298.175
298.525
298.892
299.278
299.682
300.105
300.547
301.01
301.492
301.995
302.519
303.063
303.628
304.215
304.822
305.452
306.103
306.776
307.472
308.189
308.929
309.692
310.477
311.285
312.116
312.969
313.846
314.745
315.668
316.613
317.582
318.584
319.625
320.71
321.848
323.044
324.305
325.638
327.045
328.528
330.083
331.702
333.362
334.963
336.185
336.914
336.681
293.163
293.165
293.168
293.17
293.174
293.177
293.181
293.185
293.191
293.196
293.203
293.21
293.218
293.226
293.236
293.247
293.26
293.273
293.288
293.304
293.323
293.342
293.364
293.388
293.415
293.443
293.475
293.509
293.546
293.586
293.63
293.677
293.728
293.783
293.843
293.907
293.975
294.049
294.128
294.213
294.303
294.4
294.502
294.612
294.728
294.851
294.982
295.12
295.266
295.42
295.582
295.753
295.933
296.122
296.32
296.527
296.743
296.97
297.205
297.451
297.707
297.972
298.248
298.533
298.828
299.133
299.447
299.771
300.103
300.443
300.791
301.145
301.507
301.874
302.246
302.623
303.004
303.389
303.778
304.17
304.567
304.969
305.378
305.797
306.219
306.642
307.068
307.507
307.962
308.437
308.936
309.461
310.017
310.608
311.238
311.918
312.661
313.447
313.962
313.887
293.158
293.159
293.161
293.162
293.164
293.166
293.168
293.171
293.174
293.177
293.18
293.184
293.189
293.193
293.199
293.205
293.211
293.219
293.227
293.236
293.245
293.256
293.268
293.281
293.295
293.31
293.327
293.345
293.364
293.386
293.409
293.433
293.46
293.489
293.52
293.554
293.589
293.628
293.669
293.712
293.759
293.808
293.861
293.916
293.975
294.038
294.103
294.173
294.246
294.322
294.402
294.486
294.574
294.666
294.761
294.86
294.962
295.068
295.178
295.291
295.407
295.526
295.647
295.771
295.897
296.024
296.153
296.282
296.411
296.539
296.666
296.791
296.913
297.031
297.144
297.252
297.353
297.447
297.532
297.609
297.676
297.734
297.782
297.821
297.851
297.874
297.887
297.881
297.855
297.811
297.748
297.663
297.553
297.412
297.238
297.026
296.774
296.481
296.15
295.802
293.154
293.155
293.156
293.156
293.157
293.158
293.159
293.16
293.162
293.163
293.165
293.167
293.169
293.171
293.173
293.176
293.179
293.183
293.186
293.19
293.195
293.2
293.205
293.211
293.217
293.224
293.231
293.239
293.248
293.257
293.267
293.278
293.29
293.303
293.316
293.331
293.346
293.363
293.38
293.399
293.418
293.439
293.461
293.484
293.508
293.534
293.56
293.588
293.617
293.647
293.678
293.711
293.744
293.778
293.813
293.848
293.885
293.922
293.959
293.996
294.034
294.071
294.108
294.144
294.179
294.214
294.246
294.277
294.306
294.332
294.356
294.376
294.392
294.404
294.412
294.414
294.412
294.403
294.39
294.37
294.345
294.315
294.279
294.239
294.196
294.15
294.102
294.053
294.004
293.951
293.893
293.832
293.768
293.702
293.635
293.567
293.5
293.437
293.381
293.335
293.152
293.152
293.153
293.153
293.153
293.154
293.154
293.155
293.156
293.156
293.157
293.158
293.159
293.16
293.161
293.162
293.163
293.165
293.166
293.168
293.17
293.172
293.174
293.176
293.179
293.181
293.184
293.187
293.191
293.194
293.198
293.202
293.206
293.211
293.216
293.221
293.226
293.232
293.238
293.244
293.25
293.257
293.264
293.271
293.278
293.286
293.294
293.302
293.31
293.318
293.326
293.335
293.343
293.352
293.361
293.369
293.377
293.385
293.393
293.401
293.408
293.415
293.421
293.426
293.431
293.435
293.438
293.441
293.442
293.442
293.44
293.438
293.434
293.428
293.421
293.413
293.403
293.391
293.379
293.365
293.35
293.335
293.319
293.303
293.287
293.271
293.257
293.243
293.231
293.22
293.21
293.201
293.193
293.185
293.178
293.171
293.166
293.162
293.158
293.156
293.151
293.151
293.151
293.151
293.152
293.152
293.152
293.152
293.152
293.153
293.153
293.153
293.154
293.154
293.155
293.155
293.156
293.156
293.157
293.158
293.158
293.159
293.16
293.161
293.162
293.163
293.164
293.165
293.166
293.168
293.169
293.17
293.172
293.173
293.175
293.176
293.178
293.18
293.181
293.183
293.185
293.187
293.189
293.19
293.192
293.194
293.196
293.198
293.199
293.201
293.203
293.204
293.206
293.207
293.208
293.21
293.211
293.212
293.212
293.213
293.214
293.214
293.214
293.214
293.213
293.213
293.212
293.211
293.21
293.208
293.206
293.204
293.202
293.199
293.196
293.193
293.19
293.187
293.183
293.18
293.176
293.173
293.169
293.166
293.164
293.161
293.159
293.157
293.155
293.154
293.153
293.152
293.152
293.151
293.151
293.151
293.15
293.15
293.15
293.15
293.15
293.15
293.151
293.151
293.151
293.151
293.151
293.151
293.151
293.151
293.151
293.151
293.152
293.152
293.152
293.152
293.152
293.153
293.153
293.153
293.153
293.154
293.154
293.154
293.155
293.155
293.155
293.156
293.156
293.157
293.157
293.158
293.158
293.159
293.159
293.159
293.16
293.16
293.161
293.161
293.162
293.162
293.163
293.163
293.164
293.164
293.164
293.165
293.165
293.165
293.166
293.166
293.166
293.166
293.166
293.166
293.166
293.166
293.166
293.166
293.165
293.165
293.165
293.164
293.164
293.164
293.163
293.162
293.162
293.161
293.161
293.16
293.159
293.158
293.158
293.157
293.156
293.155
293.155
293.154
293.153
293.153
293.152
293.152
293.151
293.151
293.151
293.15
293.15
293.15
293.15
293.15
293.15
293.15
293.15
293.15
293.15
293.15
293.15
293.15
293.15
293.15
293.15
293.15
293.15
293.15
293.15
293.15
293.15
293.151
293.151
293.151
293.151
293.151
293.151
293.151
293.151
293.151
293.151
293.151
293.151
293.152
293.152
293.152
293.152
293.152
293.152
293.152
293.152
293.153
293.153
293.153
293.153
293.153
293.153
293.153
293.154
293.154
293.154
293.154
293.154
293.154
293.154
293.154
293.154
293.155
293.155
293.155
293.155
293.155
293.155
293.155
293.155
293.155
293.155
293.154
293.154
293.154
293.154
293.154
293.154
293.154
293.154
293.153
293.153
293.153
293.153
293.153
293.152
293.152
293.152
293.152
293.152
293.151
293.151
293.151
293.151
293.151
293.151
293.151
293.15
293.15
293.15
293.15
293.15
293.15
293.15
293.15
293.15
293.15
293.15
293.15
293.15
293.15
293.15
293.15
293.15
293.15
293.15
293.15
293.15
293.15
293.15
293.15
293.15
293.15
293.15
293.15
293.15
293.15
293.15
293.15
293.15
293.15
293.15
293.15
293.15
293.15
293.151
293.151
293.151
293.151
293.151
293.151
293.151
293.151
293.151
293.151
293.151
293.151
293.151
293.151
293.151
293.151
293.151
293.151
293.151
293.151
293.151
293.151
293.151
293.152
293.152
293.152
293.152
293.152
293.152
293.152
293.152
293.152
293.152
293.151
293.151
293.151
293.151
293.151
293.151
293.151
293.151
293.151
293.151
293.151
293.151
293.151
293.151
293.151
293.151
293.151
293.151
293.151
293.15
293.15
293.15
293.15
293.15
293.15
293.15
293.15
293.15
293.15
293.15
293.15
293.15
293.15
293.15
293.15
293.15
293.15
293.15
293.15
293.15
293.15
293.15
293.15
293.15
293.15
293.15
293.15
293.15
293.15
293.15
293.15
293.15
293.15
293.15
293.15
293.15
293.15
293.15
293.15
293.15
293.15
293.15
293.15
293.15
293.15
293.15
293.15
293.15
293.15
293.15
293.15
293.15
293.15
293.15
293.15
293.15
293.15
293.15
293.15
293.15
293.15
293.15
293.15
293.15
293.15
293.151
293.151
293.151
293.151
293.151
293.151
293.151
293.151
293.151
293.151
293.151
293.151
293.151
293.151
293.151
293.15
293.15
293.15
293.15
293.15
293.15
293.15
293.15
293.15
293.15
293.15
293.15
293.15
293.15
293.15
293.15
293.15
293.15
293.15
293.15
293.15
293.15
293.15
293.15
293.15
293.15
293.15
293.15
293.15
293.15
293.15
293.15
293.15
293.15
293.15
293.15
293.15
293.15
293.15
293.15
293.15
293.15
293.15
293.15
293.15
293.15
293.15
293.15
293.15
293.15
293.15
293.15
293.15
293.15
293.15
293.15
293.15
293.15
293.15
293.15
293.15
293.15
293.15
293.15
293.15
293.15
293.15
293.15
293.15
293.15
293.15
293.15
293.15
293.15
293.15
293.15
293.15
293.15
293.15
293.15
293.15
293.15
293.15
293.15
293.15
293.15
293.15
293.15
293.15
293.15
293.15
293.15
293.15
293.15
293.15
293.15
293.15
293.15
293.15
293.15
293.15
293.15
293.15
293.15
293.15
293.15
293.15
293.15
293.15
293.15
293.15
293.15
293.15
293.15
293.15
293.15
293.15
293.15
293.15
293.15
293.15
293.15
293.15
293.15
293.15
293.15
293.15
293.15
293.15
293.15
293.15
293.15
293.15
293.15
293.15
293.15
293.15
293.15
293.15
293.15
293.15
293.15
293.15
293.15
293.15
293.15
293.15
293.15
293.15
293.15
293.15
293.15
293.15
293.15
293.15
293.15
293.15
293.15
293.15
293.15
293.15
293.15
293.15
293.15
293.15
293.15
293.15
293.15
293.15
293.15
293.15
293.15
293.15
293.15
293.15
293.15
293.15
293.15
293.15
293.15
293.15
293.15
293.15
293.15
293.15
293.15
293.15
293.15
293.15
293.15
293.15
293.15
293.15
293.15
293.15
293.15
293.15
293.15
293.15
293.15
293.15
293.15
293.15
293.15
293.15
293.15
293.15
293.15
293.15
293.15
293.15
293.15
293.15
293.15
293.15
293.15
293.15
293.15
293.15
293.15
293.15
293.15
293.15
293.15
293.15
293.15
293.15
293.15
293.15
293.15
293.15
293.15
293.15
293.15
293.15
293.15
293.15
293.15
293.15
293.15
293.15
293.15
293.15
293.15
293.15
293.15
293.15
293.15
293.15
365.453
375.131
376.89
376.735
376.082
375.307
374.496
373.653
372.745
371.712
370.46
368.854
366.697
363.722
359.583
353.881
346.188
336.045
323.056
306.863
368.666
374.958
375.797
375.265
374.388
373.429
372.44
371.406
370.28
368.989
367.426
365.442
362.835
359.348
354.674
348.491
340.46
330.263
317.722
302.721
370.828
374.19
374.206
373.338
372.242
371.084
369.886
368.619
367.226
365.621
363.691
361.281
358.197
354.208
349.069
342.527
334.332
324.299
312.466
299.154
371.323
372.542
371.904
370.744
369.43
368.053
366.611
365.066
363.353
361.386
359.05
356.198
352.658
348.248
342.778
336.059
327.915
318.301
307.48
296.441
369.918
369.739
368.612
367.186
365.64
364.012
362.286
360.421
358.353
356.005
353.275
350.033
346.146
341.478
335.878
329.197
321.353
312.475
302.987
294.679
366.407
365.38
363.88
362.19
360.385
358.475
356.44
354.244
351.842
349.185
346.175
342.708
338.682
333.977
328.47
322.081
314.852
307.03
299.202
293.736
360.281
358.741
356.937
354.99
352.931
350.766
348.491
346.095
343.544
340.77
337.692
334.232
330.305
325.814
320.692
314.935
308.659
302.185
296.323
293.33
350.355
348.546
346.576
344.509
342.376
340.203
337.966
335.655
333.212
330.575
327.702
324.548
321.051
317.154
312.813
308.062
303.044
298.193
294.47
293.195
334.887
333.224
331.484
329.716
327.947
326.159
324.326
322.422
320.427
318.341
316.124
313.753
311.167
308.339
305.206
301.803
298.327
295.338
293.563
293.165
312.89
311.994
311.054
310.11
309.166
308.187
307.21
306.227
305.243
304.237
303.197
302.098
300.905
299.588
298.1
296.452
294.885
293.748
293.237
293.157
295.467
295.388
295.285
295.162
295.013
294.866
294.722
294.577
294.434
294.286
294.138
293.98
293.823
293.645
293.483
293.354
293.261
293.2
293.157
293.151
293.305
293.304
293.301
293.296
293.287
293.276
293.263
293.251
293.238
293.226
293.214
293.202
293.19
293.178
293.167
293.16
293.156
293.152
293.15
293.15
293.155
293.155
293.155
293.156
293.156
293.156
293.155
293.155
293.154
293.154
293.153
293.152
293.152
293.151
293.151
293.15
293.15
293.15
293.15
293.15
293.15
293.15
293.15
293.15
293.15
293.15
293.15
293.15
293.15
293.15
293.15
293.15
293.15
293.15
293.15
293.15
293.15
293.15
293.15
293.15
293.15
293.15
293.15
293.15
293.15
293.15
293.15
293.15
293.15
293.15
293.15
293.15
293.15
293.15
293.15
293.15
293.15
293.15
293.15
293.15
293.15
293.15
293.15
293.15
293.15
293.15
293.15
293.15
293.15
293.15
293.15
293.15
293.15
293.15
293.15
293.15
293.15
293.15
293.15
293.15
293.15
293.15
293.15
293.15
293.15
293.15
293.15
293.15
293.15
293.15
293.15
293.15
293.15
293.15
293.15
293.15
293.15
293.15
293.15
293.15
293.15
293.15
293.15
293.15
293.15
293.15
293.15
293.15
293.15
293.15
293.15
293.15
293.15
293.15
293.15
293.15
293.15
293.15
293.15
293.15
293.15
293.15
293.15
293.15
293.15
293.15
293.15
293.15
293.15
293.15
293.15
293.15
293.15
293.15
293.15
293.15
293.15
293.15
293.15
293.15
293.15
293.15
293.15
293.15
293.15
293.15
293.15
293.15
293.15
293.15
293.15
293.15
293.15
293.15
293.15
293.15
293.15
293.15
293.15
293.15
393.15
393.15
393.15
393.15
393.15
393.15
393.15
393.15
393.15
393.15
393.15
393.15
393.15
393.15
393.15
393.15
393.15
393.15
393.15
393.15
393.15
393.15
393.15
393.15
393.15
393.15
393.15
393.15
393.15
393.15
393.15
393.15
393.15
393.15
393.15
393.15
393.15
393.15
393.15
393.15
393.15
393.15
393.15
393.15
393.15
393.15
393.15
393.15
393.15
393.15
393.15
393.15
393.15
393.15
393.15
393.15
393.15
393.15
393.15
393.15
393.15
393.15
393.15
393.15
393.15
393.15
393.15
393.15
393.15
393.15
393.15
393.15
393.15
393.15
393.15
393.15
393.15
393.15
393.15
393.15
393.15
393.15
393.15
393.15
393.15
393.15
393.15
393.15
393.15
393.15
393.15
393.15
393.15
393.15
393.15
393.15
393.15
393.15
393.15
393.15
393.15
393.15
393.15
393.15
393.15
393.15
393.15
393.15
393.15
393.15
393.15
393.15
393.15
393.15
393.15
393.15
393.15
393.15
393.15
393.15
393.15
393.15
393.15
393.15
393.15
393.15
393.15
393.15
393.15
393.15
393.15
393.15
393.15
393.15
393.15
393.15
393.15
393.15
393.15
393.15
393.15
393.15
393.15
393.15
393.15
393.15
393.15
393.15
393.15
393.15
393.15
393.15
393.15
393.15
393.15
393.15
393.15
393.15
393.15
393.15
393.15
393.15
393.15
393.15
393.15
393.15
393.15
393.15
393.15
393.15
393.15
393.15
393.15
393.15
393.15
393.15
393.15
393.15
393.15
393.15
393.15
393.15
393.15
393.15
393.15
393.15
393.15
393.15
393.15
393.15
393.15
393.15
393.15
393.15
393.15
393.15
393.15
393.15
393.15
393.15
393.15
393.15
393.15
393.15
393.15
393.15
393.15
393.15
393.15
393.15
393.15
393.15
393.15
393.15
393.15
393.15
393.15
393.15
393.15
393.15
393.15
393.15
393.15
393.15
393.15
393.15
393.15
393.15
393.15
393.15
393.15
393.15
393.15
393.15
393.15
393.15
393.15
393.15
393.15
393.15
393.15
393.15
393.15
393.15
393.15
393.15
393.15
393.15
393.15
393.15
393.15
393.15
393.15
393.15
393.15
393.15
393.15
393.15
393.15
393.15
393.15
393.15
393.15
393.15
393.15
393.15
393.15
393.15
393.15
393.15
393.15
393.15
393.15
393.15
393.15
393.15
393.15
393.15
393.15
393.15
393.15
393.15
393.15
393.15
393.15
393.15
393.15
393.15
393.15
393.15
393.15
393.15
393.15
393.15
393.15
393.15
393.15
393.15
393.15
393.15
393.15
393.15
393.15
393.15
393.15
393.15
393.15
393.15
393.15
393.15
393.15
393.15
393.15
393.15
393.15
393.15
393.15
393.15
393.15
393.15
393.15
393.15
393.15
393.15
393.15
393.15
393.15
393.15
393.15
393.15
393.15
393.15
393.15
393.15
393.15
393.15
393.15
393.15
393.15
393.15
393.15
393.15
393.15
393.15
393.15
393.15
393.15
393.15
393.15
393.15
393.15
393.15
393.15
393.15
393.15
393.15
393.15
393.15
393.15
393.15
393.15
393.15
393.15
393.15
393.15
393.15
393.15
393.15
393.15
393.15
393.15
393.15
393.15
393.15
393.15
393.15
393.15
393.15
393.15
393.15
393.15
393.15
393.15
393.15
393.15
393.15
393.15
393.15
393.15
393.15
393.15
393.15
393.15
393.15
393.15
393.15
393.15
393.15
393.15
393.15
393.15
393.15
393.15
393.15
393.15
393.15
393.15
393.15
393.15
393.15
393.15
393.15
393.15
393.15
393.15
393.15
393.15
393.15
393.15
393.15
393.15
393.15
393.15
393.15
393.15
393.15
393.15
393.15
393.15
393.15
393.15
393.15
393.15
393.15
393.15
393.15
393.15
393.15
393.15
393.15
393.15
393.15
393.15
393.15
393.15
393.15
393.15
393.15
393.15
393.15
393.15
393.15
393.15
393.15
393.15
393.15
393.15
393.15
393.15
393.15
393.15
393.15
393.15
393.15
393.15
393.15
393.15
393.15
393.15
393.15
393.15
393.15
393.15
393.15
393.15
393.15
393.15
393.15
393.15
393.15
393.15
393.15
393.15
393.15
393.15
393.15
393.15
393.15
393.15
393.15
393.15
393.15
393.15
393.15
393.15
393.15
393.15
393.15
393.15
393.15
393.15
393.15
393.15
393.15
393.15
393.15
393.15
393.15
393.15
393.15
393.15
393.15
393.15
393.15
393.15
393.15
393.15
393.15
393.15
393.15
393.15
393.15
393.15
393.15
393.15
393.15
393.15
393.15
393.15
393.15
393.15
393.15
393.15
393.15
393.15
393.15
393.15
393.15
393.15
393.15
393.15
393.15
393.15
393.15
393.15
393.15
393.15
393.15
393.15
393.15
393.15
393.15
393.15
393.15
393.15
393.15
393.15
393.15
393.15
393.15
393.15
393.15
393.15
393.15
393.15
393.15
393.15
393.15
393.15
393.15
393.15
393.15
393.15
393.15
393.15
393.15
393.15
393.15
393.15
393.15
393.15
393.15
393.15
393.15
393.15
393.15
393.15
393.15
393.15
393.15
393.15
393.15
393.15
393.15
393.15
393.15
393.15
393.15
393.15
393.15
393.15
393.15
393.15
393.15
393.15
393.15
393.15
393.15
393.15
393.15
393.15
393.15
393.15
393.15
393.15
393.15
393.15
393.15
393.15
393.15
393.15
393.15
393.15
393.15
393.15
393.15
393.15
393.15
393.15
393.15
393.15
393.15
393.15
393.15
393.15
393.15
393.15
393.15
393.15
393.15
393.15
393.15
393.15
393.15
393.15
393.15
393.15
393.15
393.15
393.15
393.15
393.15
393.15
393.15
393.15
393.15
393.15
393.15
393.15
393.15
393.15
393.15
393.15
393.15
393.15
393.15
393.15
393.15
393.15
393.15
393.15
393.15
393.15
393.15
393.15
393.15
393.15
393.15
393.15
393.15
393.15
393.15
393.15
393.15
393.15
393.15
393.15
393.15
393.15
393.15
393.15
393.15
393.15
393.15
393.15
393.15
393.15
393.15
393.15
393.15
393.15
393.15
393.15
393.15
393.15
393.15
393.15
393.15
393.15
393.15
393.15
393.15
393.15
393.15
393.15
393.15
393.15
393.15
393.15
393.15
393.15
393.15
393.15
393.15
393.15
393.15
393.15
393.15
393.15
393.15
393.15
393.15
393.15
393.15
393.15
393.15
393.15
393.15
393.15
393.15
393.15
393.15
393.15
393.15
393.15
393.15
393.15
393.15
393.15
393.15
393.15
393.15
393.15
393.15
393.15
393.15
393.15
393.15
393.15
393.15
393.15
393.15
393.15
393.15
393.15
393.15
393.15
393.15
393.15
393.15
393.15
393.15
393.15
393.15
393.15
393.15
393.15
393.15
393.15
393.15
393.15
393.15
393.15
393.15
393.15
393.15
393.15
393.15
393.15
393.15
393.15
393.15
393.15
393.15
393.15
393.15
393.15
393.15
393.15
393.15
393.15
393.15
393.15
393.15
393.15
393.15
393.15
393.15
393.15
393.15
393.15
393.15
393.15
393.15
393.15
393.15
393.15
393.15
393.15
393.15
393.15
393.15
393.15
393.15
393.15
393.15
393.15
393.15
393.15
393.15
393.15
393.15
393.15
393.15
393.15
393.15
393.15
393.15
393.15
393.15
393.15
393.15
393.15
393.15
393.15
393.15
393.15
393.15
393.15
393.15
393.15
393.15
393.15
393.15
393.15
393.15
393.15
393.15
393.15
393.15
393.15
393.15
393.15
393.15
393.15
393.15
393.15
393.15
393.15
393.15
393.15
393.15
393.15
393.15
393.15
393.15
393.15
393.15
393.15
393.15
393.15
393.15
393.15
393.15
393.15
393.15
393.15
393.15
393.15
393.15
393.15
393.15
393.15
393.15
393.15
393.15
393.15
393.15
393.15
393.15
393.15
393.15
393.15
393.15
393.15
393.15
393.15
393.15
393.15
393.15
393.15
393.15
393.15
393.15
393.15
393.15
393.15
393.15
393.15
393.15
393.15
393.15
393.15
393.15
393.15
393.15
393.15
393.15
393.15
393.15
393.15
393.15
393.15
393.15
393.15
393.15
393.15
393.15
393.15
393.15
393.15
393.15
393.15
393.15
393.15
393.15
393.15
393.15
393.15
393.15
393.15
393.15
393.15
393.15
393.15
393.15
393.15
393.15
393.15
393.15
393.15
393.15
393.15
393.15
393.15
393.15
393.15
393.15
393.15
393.15
393.15
393.15
393.15
393.15
393.15
393.15
393.15
393.15
393.15
393.15
393.15
393.15
393.15
393.15
393.15
393.15
393.15
393.15
393.15
393.15
393.15
393.15
393.15
393.15
393.15
393.15
393.15
393.15
393.15
393.15
393.15
393.15
393.15
393.15
393.15
393.15
393.15
393.15
393.15
393.15
393.15
393.15
393.15
393.15
393.15
393.15
393.15
393.15
393.15
393.15
393.15
393.15
393.15
393.15
393.15
393.15
393.15
393.15
393.15
393.15
393.15
393.15
393.15
393.15
393.15
393.15
393.15
393.15
393.15
393.15
393.15
393.15
393.15
393.15
393.15
393.15
393.15
393.15
393.15
393.15
393.15
393.15
393.15
393.15
393.15
393.15
393.15
393.15
393.15
393.15
393.15
393.15
393.15
393.15
393.15
393.15
393.15
393.15
393.15
393.15
393.15
393.15
393.15
393.15
393.15
393.15
393.15
393.15
393.15
393.15
393.15
393.15
393.15
393.15
393.15
393.15
393.15
393.15
393.15
393.15
393.15
393.15
393.15
393.15
393.15
393.15
393.15
393.15
393.15
393.15
393.15
393.15
393.15
393.15
393.15
393.15
393.15
393.15
393.15
393.15
393.15
393.15
393.15
393.15
393.15
393.15
393.15
393.15
393.15
393.15
393.149
393.15
393.15
393.15
393.15
393.15
393.15
393.15
393.15
393.15
393.15
393.15
393.15
393.15
393.15
393.15
393.15
393.15
393.15
393.149
393.149
393.15
393.15
393.15
393.15
393.15
393.15
393.15
393.15
393.15
393.15
393.15
393.15
393.15
393.15
393.15
393.15
393.15
393.15
393.149
393.148
393.15
393.15
393.15
393.15
393.15
393.15
393.15
393.15
393.15
393.15
393.15
393.15
393.15
393.15
393.15
393.15
393.15
393.15
393.148
393.146
393.149
393.15
393.15
393.15
393.15
393.15
393.15
393.15
393.15
393.15
393.15
393.15
393.15
393.15
393.15
393.15
393.15
393.149
393.146
393.144
393.149
393.15
393.15
393.15
393.15
393.15
393.15
393.15
393.15
393.15
393.15
393.15
393.15
393.15
393.15
393.15
393.15
393.149
393.144
393.14
393.148
393.149
393.15
393.15
393.15
393.15
393.15
393.15
393.15
393.15
393.15
393.15
393.15
393.15
393.15
393.15
393.149
393.148
393.14
393.133
393.147
393.149
393.15
393.15
393.15
393.15
393.15
393.15
393.15
393.15
393.15
393.15
393.15
393.15
393.15
393.15
393.149
393.147
393.133
393.123
393.145
393.148
393.149
393.149
393.149
393.149
393.149
393.149
393.149
393.149
393.149
393.149
393.149
393.149
393.149
393.149
393.148
393.145
393.123
393.108
393.142
393.148
393.149
393.149
393.149
393.149
393.149
393.149
393.149
393.149
393.149
393.149
393.149
393.149
393.149
393.149
393.148
393.142
393.108
393.086
393.137
393.146
393.148
393.149
393.149
393.149
393.149
393.149
393.149
393.149
393.149
393.149
393.149
393.149
393.149
393.148
393.146
393.137
393.086
393.053
393.13
393.144
393.147
393.148
393.148
393.148
393.148
393.148
393.148
393.148
393.148
393.148
393.148
393.148
393.148
393.147
393.144
393.13
393.054
393.007
393.12
393.141
393.146
393.147
393.147
393.147
393.147
393.147
393.147
393.147
393.147
393.147
393.147
393.147
393.147
393.146
393.141
393.12
393.007
392.941
393.105
393.136
393.143
393.145
393.146
393.146
393.146
393.146
393.146
393.146
393.146
393.146
393.146
393.146
393.145
393.143
393.136
393.105
392.941
392.849
393.084
393.129
393.14
393.143
393.143
393.144
393.144
393.143
393.143
393.143
393.143
393.144
393.144
393.143
393.143
393.14
393.129
393.084
392.849
392.724
393.054
393.119
393.135
393.139
393.14
393.141
393.141
393.14
393.14
393.14
393.14
393.141
393.141
393.14
393.139
393.135
393.119
393.054
392.724
392.556
393.014
393.106
393.128
393.134
393.136
393.136
393.136
393.136
393.136
393.136
393.136
393.136
393.136
393.136
393.134
393.128
393.106
393.013
392.556
392.334
392.958
393.087
393.119
393.127
393.13
393.13
393.13
393.13
393.13
393.13
393.13
393.13
393.13
393.13
393.127
393.119
393.086
392.958
392.333
392.044
392.884
393.061
393.106
393.118
393.121
393.122
393.122
393.122
393.122
393.122
393.122
393.122
393.122
393.121
393.118
393.106
393.06
392.883
392.043
391.672
392.787
393.026
393.088
393.104
393.109
393.111
393.111