/*--------------------------------*- C++ -*----------------------------------*\
| =========                 |                                                 |
| \\      /  F ield         | OpenFOAM: The Open Source CFD Toolbox           |
|  \\    /   O peration     | Version:  2.1.0                                 |
|   \\  /    A nd           | Web:      www.OpenFOAM.org                      |
|    \\/     M anipulation  |                                                 |
\*---------------------------------------------------------------------------*/
FoamFile
{
    version     2.0;
    format      ascii;
    class       volVectorField;
    location    "0.22";
    object      U;
}
// * * * * * * * * * * * * * * * * * * * * * * * * * * * * * * * * * * * * * //

dimensions      [0 1 -1 0 0 0 0];

internalField   nonuniform List<vector> 
6400
(
(-1.22715 -4.12476e-05 0)
(-1.22599 -0.00047227 0)
(-1.22364 -0.000749706 0)
(-1.22041 -0.000889135 0)
(-1.21674 -0.000970093 0)
(-1.21279 -0.00102346 0)
(-1.20868 -0.0010617 0)
(-1.20442 -0.00109157 0)
(-1.20005 -0.00111693 0)
(-1.19559 -0.00113987 0)
(-1.19104 -0.0011617 0)
(-1.1864 -0.00118299 0)
(-1.18168 -0.00120421 0)
(-1.17688 -0.00122543 0)
(-1.17199 -0.00124694 0)
(-1.16702 -0.00126861 0)
(-1.16196 -0.00129063 0)
(-1.15682 -0.00131284 0)
(-1.15158 -0.00133551 0)
(-1.14625 -0.00135842 0)
(-1.14084 -0.00138133 0)
(-1.13533 -0.00140492 0)
(-1.12973 -0.00143002 0)
(-1.12402 -0.00145587 0)
(-1.11822 -0.0014825 0)
(-1.1123 -0.00150997 0)
(-1.10628 -0.0015385 0)
(-1.10014 -0.00156801 0)
(-1.09388 -0.00159864 0)
(-1.0875 -0.00163036 0)
(-1.08099 -0.00166328 0)
(-1.07435 -0.00169737 0)
(-1.06757 -0.0017328 0)
(-1.06065 -0.00176954 0)
(-1.05358 -0.00180777 0)
(-1.04636 -0.00184762 0)
(-1.03898 -0.00188924 0)
(-1.03143 -0.00193277 0)
(-1.0237 -0.00197835 0)
(-1.0158 -0.00202617 0)
(-1.00769 -0.00207636 0)
(-0.99939 -0.00212889 0)
(-0.990874 -0.0021838 0)
(-0.982138 -0.00224112 0)
(-0.973171 -0.00230081 0)
(-0.963966 -0.0023627 0)
(-0.954513 -0.00242681 0)
(-0.944804 -0.00249264 0)
(-0.934837 -0.00255858 0)
(-0.924603 -0.00262789 0)
(-0.914086 -0.00270281 0)
(-0.90327 -0.00277909 0)
(-0.892164 -0.00285275 0)
(-0.880774 -0.00292255 0)
(-0.869114 -0.00299065 0)
(-0.857186 -0.00305875 0)
(-0.84499 -0.00312759 0)
(-0.832522 -0.00319738 0)
(-0.819779 -0.00326824 0)
(-0.806756 -0.00334023 0)
(-0.79345 -0.0034133 0)
(-0.779855 -0.00348764 0)
(-0.765966 -0.00356359 0)
(-0.751778 -0.00364113 0)
(-0.737283 -0.00372049 0)
(-0.722474 -0.00380188 0)
(-0.707343 -0.00388548 0)
(-0.691881 -0.00397148 0)
(-0.676078 -0.00405986 0)
(-0.659926 -0.00415081 0)
(-0.643413 -0.00424468 0)
(-0.626528 -0.00434189 0)
(-0.609255 -0.00444324 0)
(-0.591576 -0.00454991 0)
(-0.573468 -0.00466366 0)
(-0.554896 -0.0047871 0)
(-0.535818 -0.00492363 0)
(-0.516172 -0.00507738 0)
(-0.495882 -0.00525337 0)
(-0.474847 -0.00545814 0)
(-0.452937 -0.00569989 0)
(-0.429988 -0.00598831 0)
(-0.405796 -0.00633358 0)
(-0.380118 -0.00674497 0)
(-0.352677 -0.00723018 0)
(-0.323173 -0.00779333 0)
(-0.291304 -0.00843056 0)
(-0.256814 -0.00912309 0)
(-0.219574 -0.00982316 0)
(-0.179756 -0.0104274 0)
(-0.138136 -0.0107291 0)
(-0.0967207 -0.0103105 0)
(-0.059559 -0.00855188 0)
(-0.0323245 -0.0052543 0)
(-0.0189609 -0.00150923 0)
(-0.0220327 0.00306255 0)
(-0.0502511 0.0111228 0)
(-0.129586 0.028516 0)
(-0.326202 0.0693689 0)
(-0.932707 0.194572 0)
(-1.48359 -0.000297439 0)
(-1.4806 -0.0015538 0)
(-1.47845 -0.00227549 0)
(-1.47508 -0.00265503 0)
(-1.47139 -0.00288104 0)
(-1.46746 -0.00303085 0)
(-1.46339 -0.00313837 0)
(-1.4592 -0.00322239 0)
(-1.45492 -0.0032938 0)
(-1.45056 -0.00335838 0)
(-1.44612 -0.00341993 0)
(-1.44162 -0.00347996 0)
(-1.43703 -0.00353996 0)
(-1.43238 -0.00360006 0)
(-1.42765 -0.00366109 0)
(-1.42286 -0.00372265 0)
(-1.41798 -0.00378527 0)
(-1.41303 -0.00384844 0)
(-1.408 -0.00391275 0)
(-1.40289 -0.00397779 0)
(-1.3977 -0.00404213 0)
(-1.39245 -0.00410761 0)
(-1.38711 -0.00417711 0)
(-1.38169 -0.00424815 0)
(-1.37619 -0.00432093 0)
(-1.37062 -0.00439577 0)
(-1.36496 -0.00447326 0)
(-1.35921 -0.00455324 0)
(-1.35338 -0.00463601 0)
(-1.34746 -0.00472151 0)
(-1.34144 -0.00481002 0)
(-1.33534 -0.00490148 0)
(-1.32913 -0.00499635 0)
(-1.32283 -0.00509469 0)
(-1.31642 -0.00519675 0)
(-1.30991 -0.00530284 0)
(-1.30328 -0.00541332 0)
(-1.29655 -0.0055285 0)
(-1.28969 -0.00564869 0)
(-1.28272 -0.00577426 0)
(-1.27562 -0.00590574 0)
(-1.26839 -0.00604318 0)
(-1.26103 -0.00618682 0)
(-1.25353 -0.0063368 0)
(-1.24587 -0.00649319 0)
(-1.23807 -0.00665576 0)
(-1.23011 -0.0068247 0)
(-1.22197 -0.00699901 0)
(-1.21366 -0.0071744 0)
(-1.20519 -0.00735276 0)
(-1.19656 -0.0075364 0)
(-1.1878 -0.00772059 0)
(-1.17893 -0.00790128 0)
(-1.1699 -0.00807583 0)
(-1.16075 -0.00824691 0)
(-1.15145 -0.00841756 0)
(-1.14202 -0.00858913 0)
(-1.13247 -0.00876226 0)
(-1.12278 -0.00893725 0)
(-1.11297 -0.00911399 0)
(-1.10303 -0.0092923 0)
(-1.09298 -0.00947234 0)
(-1.08281 -0.0096546 0)
(-1.07253 -0.00983905 0)
(-1.06215 -0.0100263 0)
(-1.05167 -0.0102167 0)
(-1.04109 -0.0104108 0)
(-1.03043 -0.0106094 0)
(-1.01967 -0.0108127 0)
(-1.00883 -0.0110216 0)
(-0.997896 -0.0112376 0)
(-0.986871 -0.0114621 0)
(-0.975745 -0.011698 0)
(-0.964505 -0.011949 0)
(-0.953134 -0.0122206 0)
(-0.941602 -0.0125204 0)
(-0.929873 -0.0128579 0)
(-0.917896 -0.0132446 0)
(-0.905609 -0.0136937 0)
(-0.892935 -0.0142226 0)
(-0.879777 -0.0148523 0)
(-0.866019 -0.0156076 0)
(-0.851523 -0.0165146 0)
(-0.836127 -0.0175967 0)
(-0.819654 -0.0188725 0)
(-0.801919 -0.0203509 0)
(-0.782744 -0.0220193 0)
(-0.761991 -0.0238258 0)
(-0.739611 -0.0256455 0)
(-0.715722 -0.0272207 0)
(-0.690713 -0.0280582 0)
(-0.665322 -0.0272422 0)
(-0.640727 -0.023421 0)
(-0.619606 -0.0155577 0)
(-0.609457 -0.0041098 0)
(-0.620075 0.0116799 0)
(-0.664624 0.0381732 0)
(-0.764344 0.0892953 0)
(-0.961603 0.199022 0)
(-1.43937 0.515228 0)
(-1.62916 -0.000813015 0)
(-1.62536 -0.00270042 0)
(-1.62399 -0.00373085 0)
(-1.62116 -0.00429824 0)
(-1.61804 -0.00464278 0)
(-1.61474 -0.00487169 0)
(-1.61132 -0.00503496 0)
(-1.60782 -0.00516234 0)
(-1.60424 -0.00526977 0)
(-1.60062 -0.00536687 0)
(-1.59693 -0.00545898 0)
(-1.59321 -0.00554906 0)
(-1.58942 -0.005639 0)
(-1.5856 -0.00572949 0)
(-1.58172 -0.00582156 0)
(-1.57779 -0.00591497 0)
(-1.5738 -0.0060103 0)
(-1.56977 -0.00610715 0)
(-1.56567 -0.00620607 0)
(-1.56151 -0.006307 0)
(-1.55727 -0.00640729 0)
(-1.55299 -0.0065074 0)
(-1.54863 -0.00661019 0)
(-1.54423 -0.00671364 0)
(-1.53978 -0.0068186 0)
(-1.53528 -0.00692606 0)
(-1.53073 -0.00703688 0)
(-1.52614 -0.00715084 0)
(-1.5215 -0.00726819 0)
(-1.5168 -0.00738894 0)
(-1.51206 -0.00751332 0)
(-1.50728 -0.00764125 0)
(-1.50244 -0.00777329 0)
(-1.49756 -0.00790966 0)
(-1.49262 -0.00805044 0)
(-1.48765 -0.00819593 0)
(-1.48263 -0.00834654 0)
(-1.47756 -0.00850256 0)
(-1.47246 -0.00866425 0)
(-1.46731 -0.00883188 0)
(-1.46213 -0.00900613 0)
(-1.45691 -0.00918714 0)
(-1.45166 -0.00937521 0)
(-1.44637 -0.00957054 0)
(-1.44107 -0.00977321 0)
(-1.43574 -0.00998302 0)
(-1.43039 -0.0101998 0)
(-1.42504 -0.0104221 0)
(-1.41967 -0.0106464 0)
(-1.41433 -0.0108696 0)
(-1.40898 -0.0110889 0)
(-1.40365 -0.0113042 0)
(-1.39834 -0.0115179 0)
(-1.39307 -0.0117281 0)
(-1.38781 -0.0119344 0)
(-1.38258 -0.0121382 0)
(-1.3774 -0.0123401 0)
(-1.37226 -0.0125409 0)
(-1.36719 -0.0127408 0)
(-1.36219 -0.012939 0)
(-1.35728 -0.0131349 0)
(-1.35247 -0.0133282 0)
(-1.34779 -0.0135186 0)
(-1.34325 -0.0137059 0)
(-1.33888 -0.0138904 0)
(-1.33469 -0.0140722 0)
(-1.33072 -0.0142516 0)
(-1.32698 -0.0144296 0)
(-1.3235 -0.0146066 0)
(-1.32032 -0.0147843 0)
(-1.31744 -0.0149649 0)
(-1.31491 -0.0151509 0)
(-1.31274 -0.0153472 0)
(-1.31094 -0.0155602 0)
(-1.30954 -0.0157989 0)
(-1.30854 -0.0160757 0)
(-1.30792 -0.0164058 0)
(-1.30768 -0.0168066 0)
(-1.30777 -0.0172985 0)
(-1.30816 -0.0179068 0)
(-1.30878 -0.0186617 0)
(-1.30953 -0.0195977 0)
(-1.31033 -0.0207516 0)
(-1.31104 -0.0221547 0)
(-1.31153 -0.0238299 0)
(-1.31168 -0.0257848 0)
(-1.31135 -0.0279955 0)
(-1.31047 -0.0303815 0)
(-1.30902 -0.0327645 0)
(-1.3071 -0.0347995 0)
(-1.30494 -0.0358666 0)
(-1.30292 -0.0349311 0)
(-1.30157 -0.0304775 0)
(-1.30205 -0.0206008 0)
(-1.30826 -0.00369312 0)
(-1.32345 0.0223476 0)
(-1.3595 0.0651733 0)
(-1.4318 0.143769 0)
(-1.57087 0.302486 0)
(-1.83503 0.70374 0)
(-1.7619 -0.00141005 0)
(-1.75788 -0.00361508 0)
(-1.75748 -0.00486223 0)
(-1.75553 -0.00557417 0)
(-1.75336 -0.00601056 0)
(-1.75108 -0.00629845 0)
(-1.74869 -0.00650064 0)
(-1.74628 -0.00665632 0)
(-1.74381 -0.0067851 0)
(-1.74135 -0.0069004 0)
(-1.73885 -0.0070083 0)
(-1.73635 -0.0071135 0)
(-1.73383 -0.00721784 0)
(-1.73131 -0.00732278 0)
(-1.72877 -0.00742934 0)
(-1.72624 -0.00753772 0)
(-1.72369 -0.00764824 0)
(-1.72115 -0.00776103 0)
(-1.71859 -0.00787612 0)
(-1.71604 -0.00799332 0)
(-1.71348 -0.0081113 0)
(-1.71094 -0.00822914 0)
(-1.70838 -0.00834638 0)
(-1.70582 -0.00846268 0)
(-1.70326 -0.00857925 0)
(-1.70072 -0.0086979 0)
(-1.69817 -0.00881978 0)
(-1.69564 -0.00894445 0)
(-1.69312 -0.009072 0)
(-1.69062 -0.00920239 0)
(-1.68813 -0.00933572 0)
(-1.68566 -0.00947176 0)
(-1.68322 -0.00961083 0)
(-1.68081 -0.00975317 0)
(-1.67843 -0.00989882 0)
(-1.6761 -0.0100479 0)
(-1.67381 -0.0102007 0)
(-1.67157 -0.0103572 0)
(-1.66939 -0.0105177 0)
(-1.66727 -0.0106821 0)
(-1.66523 -0.0108506 0)
(-1.66327 -0.0110232 0)
(-1.6614 -0.0111997 0)
(-1.65964 -0.0113802 0)
(-1.65799 -0.0115644 0)
(-1.65648 -0.0117515 0)
(-1.65511 -0.0119407 0)
(-1.65391 -0.0121298 0)
(-1.65288 -0.0123184 0)
(-1.65204 -0.0125066 0)
(-1.65137 -0.0126897 0)
(-1.65088 -0.0128662 0)
(-1.65056 -0.013039 0)
(-1.65044 -0.013207 0)
(-1.65053 -0.0133681 0)
(-1.65083 -0.0135225 0)
(-1.65138 -0.013669 0)
(-1.65217 -0.0138084 0)
(-1.65324 -0.0139411 0)
(-1.6546 -0.0140652 0)
(-1.65627 -0.0141795 0)
(-1.65827 -0.0142834 0)
(-1.66062 -0.0143764 0)
(-1.66334 -0.0144579 0)
(-1.66645 -0.014528 0)
(-1.66997 -0.0145865 0)
(-1.67392 -0.0146342 0)
(-1.67831 -0.0146719 0)
(-1.68316 -0.0147009 0)
(-1.68847 -0.0147235 0)
(-1.69426 -0.0147433 0)
(-1.70052 -0.0147647 0)
(-1.70725 -0.0147948 0)
(-1.71444 -0.0148428 0)
(-1.72205 -0.0149219 0)
(-1.73006 -0.0150489 0)
(-1.73842 -0.0152446 0)
(-1.74708 -0.0155319 0)
(-1.75597 -0.0159365 0)
(-1.76501 -0.0164901 0)
(-1.77411 -0.0172287 0)
(-1.7832 -0.0181926 0)
(-1.79216 -0.0194239 0)
(-1.8009 -0.0209568 0)
(-1.80933 -0.0228117 0)
(-1.81738 -0.0249898 0)
(-1.82499 -0.027454 0)
(-1.83215 -0.0300997 0)
(-1.8389 -0.0327125 0)
(-1.84532 -0.0349014 0)
(-1.85153 -0.0360013 0)
(-1.85761 -0.0349644 0)
(-1.86355 -0.0302789 0)
(-1.86944 -0.0196936 0)
(-1.87774 -0.00131684 0)
(-1.88633 0.0304113 0)
(-1.90673 0.0823944 0)
(-1.945 0.177243 0)
(-2.0108 0.363397 0)
(-2.10776 0.75983 0)
(-1.89794 -0.00191207 0)
(-1.89434 -0.00416521 0)
(-1.89505 -0.00549805 0)
(-1.89433 -0.00628714 0)
(-1.89357 -0.00677521 0)
(-1.89276 -0.00709184 0)
(-1.89194 -0.00730944 0)
(-1.89112 -0.00747147 0)
(-1.89032 -0.0076015 0)
(-1.88955 -0.00771434 0)
(-1.8888 -0.00781759 0)
(-1.8881 -0.00791627 0)
(-1.88742 -0.00801282 0)
(-1.88681 -0.0081086 0)
(-1.88623 -0.00820482 0)
(-1.88571 -0.00830162 0)
(-1.88524 -0.00839929 0)
(-1.88484 -0.00849782 0)
(-1.8845 -0.00859681 0)
(-1.88425 -0.00869528 0)
(-1.88406 -0.00879413 0)
(-1.88396 -0.0088947 0)
(-1.88393 -0.00899538 0)
(-1.88398 -0.00909461 0)
(-1.8841 -0.00919211 0)
(-1.8843 -0.0092903 0)
(-1.88458 -0.00939091 0)
(-1.88495 -0.00949293 0)
(-1.8854 -0.00959619 0)
(-1.88595 -0.00970056 0)
(-1.8866 -0.00980597 0)
(-1.88736 -0.00991214 0)
(-1.88823 -0.0100191 0)
(-1.88922 -0.0101268 0)
(-1.89032 -0.0102354 0)
(-1.89157 -0.010345 0)
(-1.89294 -0.0104555 0)
(-1.89447 -0.010567 0)
(-1.89614 -0.0106794 0)
(-1.89798 -0.0107925 0)
(-1.89998 -0.0109062 0)
(-1.90216 -0.0110203 0)
(-1.90452 -0.0111346 0)
(-1.90708 -0.0112486 0)
(-1.90983 -0.011362 0)
(-1.91279 -0.0114739 0)
(-1.91597 -0.0115833 0)
(-1.91937 -0.0116885 0)
(-1.92299 -0.0117905 0)
(-1.92684 -0.0118918 0)
(-1.93093 -0.0119894 0)
(-1.93527 -0.0120797 0)
(-1.93987 -0.0121628 0)
(-1.94472 -0.0122373 0)
(-1.94985 -0.0123018 0)
(-1.95525 -0.0123563 0)
(-1.96094 -0.0123982 0)
(-1.96691 -0.0124289 0)
(-1.97318 -0.0124499 0)
(-1.97974 -0.0124586 0)
(-1.98659 -0.0124538 0)
(-1.99375 -0.0124352 0)
(-2.0012 -0.0124024 0)
(-2.00894 -0.0123551 0)
(-2.01698 -0.0122939 0)
(-2.0253 -0.012219 0)
(-2.0339 -0.0121318 0)
(-2.04276 -0.0120341 0)
(-2.05189 -0.0119278 0)
(-2.06126 -0.0118165 0)
(-2.07086 -0.0117049 0)
(-2.08068 -0.0115993 0)
(-2.09068 -0.0115085 0)
(-2.10086 -0.0114439 0)
(-2.11119 -0.0114216 0)
(-2.12165 -0.0114613 0)
(-2.13219 -0.0115872 0)
(-2.14279 -0.0118252 0)
(-2.15342 -0.0122034 0)
(-2.16404 -0.012756 0)
(-2.17461 -0.013521 0)
(-2.1851 -0.0145402 0)
(-2.19547 -0.0158577 0)
(-2.20566 -0.0175062 0)
(-2.21567 -0.0194992 0)
(-2.22546 -0.0218315 0)
(-2.23503 -0.024455 0)
(-2.24438 -0.0272513 0)
(-2.25352 -0.0299914 0)
(-2.26245 -0.0322766 0)
(-2.27112 -0.0334586 0)
(-2.27933 -0.0325506 0)
(-2.28664 -0.0281595 0)
(-2.29223 -0.0181075 0)
(-2.29859 -0.000350604 0)
(-2.29883 0.0330722 0)
(-2.30163 0.0881891 0)
(-2.30565 0.18846 0)
(-2.30175 0.37849 0)
(-2.28233 0.724554 0)
(-2.0448 -0.00216379 0)
(-2.04226 -0.00421874 0)
(-2.04418 -0.00547798 0)
(-2.04504 -0.00624466 0)
(-2.04605 -0.00672008 0)
(-2.04713 -0.00702044 0)
(-2.0483 -0.00721933 0)
(-2.04955 -0.00735868 0)
(-2.05086 -0.0074642 0)
(-2.05227 -0.00754985 0)
(-2.05374 -0.00762459 0)
(-2.05531 -0.00769271 0)
(-2.05695 -0.00775734 0)
(-2.05869 -0.00781951 0)
(-2.06051 -0.00788041 0)
(-2.06244 -0.00794001 0)
(-2.06445 -0.00799878 0)
(-2.06658 -0.00805634 0)
(-2.0688 -0.00811235 0)
(-2.07114 -0.0081659 0)
(-2.07357 -0.00821859 0)
(-2.07613 -0.00827252 0)
(-2.07879 -0.00832742 0)
(-2.08157 -0.00838105 0)
(-2.08448 -0.00843015 0)
(-2.08751 -0.00847797 0)
(-2.09068 -0.00852767 0)
(-2.09398 -0.00857718 0)
(-2.09741 -0.00862641 0)
(-2.10098 -0.00867518 0)
(-2.1047 -0.00872351 0)
(-2.10856 -0.00877123 0)
(-2.11256 -0.00881841 0)
(-2.11671 -0.00886478 0)
(-2.12101 -0.00891076 0)
(-2.12547 -0.00895649 0)
(-2.13007 -0.00900203 0)
(-2.13483 -0.00904741 0)
(-2.13974 -0.00909286 0)
(-2.14481 -0.00913807 0)
(-2.15002 -0.00918319 0)
(-2.15539 -0.00922813 0)
(-2.16091 -0.00927267 0)
(-2.16657 -0.00931665 0)
(-2.17239 -0.00935981 0)
(-2.17835 -0.00940144 0)
(-2.18445 -0.0094408 0)
(-2.1907 -0.0094773 0)
(-2.19708 -0.00951155 0)
(-2.20361 -0.00954395 0)
(-2.21027 -0.00957262 0)
(-2.21706 -0.00959517 0)
(-2.22399 -0.00961084 0)
(-2.23105 -0.00961804 0)
(-2.23823 -0.00961572 0)
(-2.24554 -0.00960396 0)
(-2.25297 -0.00957967 0)
(-2.26053 -0.00954285 0)
(-2.26822 -0.00949503 0)
(-2.27604 -0.00943489 0)
(-2.28399 -0.00936195 0)
(-2.29208 -0.00927606 0)
(-2.3003 -0.00917712 0)
(-2.30865 -0.00906489 0)
(-2.31713 -0.00893998 0)
(-2.32573 -0.00880289 0)
(-2.33446 -0.00865518 0)
(-2.34331 -0.00849901 0)
(-2.35228 -0.00833651 0)
(-2.36136 -0.00817133 0)
(-2.37056 -0.00800863 0)
(-2.37987 -0.00785515 0)
(-2.38928 -0.00772027 0)
(-2.3988 -0.00761611 0)
(-2.4084 -0.00755983 0)
(-2.41809 -0.00757241 0)
(-2.42785 -0.00767941 0)
(-2.43767 -0.00790783 0)
(-2.44753 -0.00828542 0)
(-2.45742 -0.00884704 0)
(-2.46733 -0.00963103 0)
(-2.47724 -0.0106779 0)
(-2.48714 -0.012034 0)
(-2.49703 -0.0137323 0)
(-2.50689 -0.0157769 0)
(-2.51673 -0.0181613 0)
(-2.52655 -0.0208344 0)
(-2.53636 -0.0236758 0)
(-2.54612 -0.0264623 0)
(-2.55578 -0.0288183 0)
(-2.56515 -0.0301529 0)
(-2.57384 -0.0295915 0)
(-2.58112 -0.0259109 0)
(-2.58557 -0.0173628 0)
(-2.58926 -0.0011589 0)
(-2.58264 0.0300765 0)
(-2.56979 0.0830108 0)
(-2.54338 0.178929 0)
(-2.48144 0.353089 0)
(-2.38501 0.631641 0)
(-2.19997 -0.00207399 0)
(-2.1987 -0.00369369 0)
(-2.20176 -0.00472668 0)
(-2.2042 -0.00536831 0)
(-2.20687 -0.00576191 0)
(-2.20978 -0.00600023 0)
(-2.21279 -0.00614695 0)
(-2.21596 -0.00623864 0)
(-2.2192 -0.00629884 0)
(-2.22259 -0.00633994 0)
(-2.22603 -0.00637051 0)
(-2.22961 -0.00639424 0)
(-2.23324 -0.00641422 0)
(-2.237 -0.0064314 0)
(-2.24083 -0.00644689 0)
(-2.24477 -0.00646052 0)
(-2.24878 -0.00647291 0)
(-2.2529 -0.00648361 0)
(-2.25709 -0.00649267 0)
(-2.26139 -0.00649959 0)
(-2.26576 -0.00650595 0)
(-2.27023 -0.00651224 0)
(-2.27477 -0.00651888 0)
(-2.27941 -0.00652491 0)
(-2.28411 -0.00652541 0)
(-2.28893 -0.00652177 0)
(-2.29382 -0.00651782 0)
(-2.29882 -0.00651257 0)
(-2.30392 -0.00650709 0)
(-2.30913 -0.00650132 0)
(-2.31443 -0.00649567 0)
(-2.31984 -0.00648994 0)
(-2.32534 -0.00648453 0)
(-2.33094 -0.00647914 0)
(-2.33662 -0.00647452 0)
(-2.3424 -0.00647099 0)
(-2.34826 -0.00646903 0)
(-2.35421 -0.00646868 0)
(-2.36023 -0.00647026 0)
(-2.36633 -0.00647375 0)
(-2.37249 -0.00647934 0)
(-2.37873 -0.00648704 0)
(-2.38503 -0.00649672 0)
(-2.39139 -0.00650821 0)
(-2.39781 -0.00652135 0)
(-2.40428 -0.00653544 0)
(-2.4108 -0.0065499 0)
(-2.41738 -0.00656414 0)
(-2.424 -0.00657875 0)
(-2.43066 -0.00659284 0)
(-2.43736 -0.00660513 0)
(-2.44411 -0.00661363 0)
(-2.4509 -0.00661753 0)
(-2.45772 -0.00661496 0)
(-2.46457 -0.00660481 0)
(-2.47147 -0.00658585 0)
(-2.47838 -0.00655628 0)
(-2.48535 -0.00651524 0)
(-2.49234 -0.00646196 0)
(-2.49936 -0.00639574 0)
(-2.5064 -0.00631647 0)
(-2.51347 -0.00622396 0)
(-2.52057 -0.00611783 0)
(-2.52772 -0.0059975 0)
(-2.5349 -0.00586297 0)
(-2.54213 -0.00571455 0)
(-2.5494 -0.00555359 0)
(-2.55674 -0.00538204 0)
(-2.56413 -0.00520136 0)
(-2.57161 -0.00501506 0)
(-2.57916 -0.00482835 0)
(-2.5868 -0.00464817 0)
(-2.59454 -0.00448413 0)
(-2.60238 -0.00434869 0)
(-2.61033 -0.00425957 0)
(-2.6184 -0.00423862 0)
(-2.6266 -0.00431263 0)
(-2.63492 -0.00450963 0)
(-2.64336 -0.00485542 0)
(-2.65195 -0.00538493 0)
(-2.66068 -0.00613654 0)
(-2.66957 -0.00714626 0)
(-2.67864 -0.00846467 0)
(-2.68787 -0.0101309 0)
(-2.69729 -0.012132 0)
(-2.70691 -0.0144684 0)
(-2.71673 -0.0170921 0)
(-2.72674 -0.0198902 0)
(-2.73688 -0.0226602 0)
(-2.747 -0.0250703 0)
(-2.75682 -0.0266143 0)
(-2.76579 -0.0265641 0)
(-2.77296 -0.0239088 0)
(-2.7766 -0.0174034 0)
(-2.77713 -0.00387142 0)
(-2.76545 0.0224035 0)
(-2.73927 0.0683961 0)
(-2.68731 0.151329 0)
(-2.58082 0.295906 0)
(-2.43589 0.504062 0)
(-2.34687 -0.00165592 0)
(-2.34658 -0.00269276 0)
(-2.35024 -0.00340728 0)
(-2.35359 -0.00385748 0)
(-2.35713 -0.00412569 0)
(-2.36105 -0.00427664 0)
(-2.365 -0.00435669 0)
(-2.36919 -0.00439423 0)
(-2.37335 -0.004407 0)
(-2.37771 -0.00440514 0)
(-2.38204 -0.00439516 0)
(-2.38653 -0.0043802 0)
(-2.39099 -0.00436264 0)
(-2.3956 -0.00434327 0)
(-2.40018 -0.00432307 0)
(-2.4049 -0.00430172 0)
(-2.40959 -0.00427997 0)
(-2.41441 -0.0042572 0)
(-2.41921 -0.00423396 0)
(-2.42413 -0.00420968 0)
(-2.42903 -0.00418583 0)
(-2.43403 -0.0041622 0)
(-2.43902 -0.00413917 0)
(-2.44411 -0.00411494 0)
(-2.44919 -0.00408851 0)
(-2.45439 -0.00405916 0)
(-2.45955 -0.00402833 0)
(-2.46478 -0.00399629 0)
(-2.46999 -0.00396554 0)
(-2.47527 -0.00393593 0)
(-2.48052 -0.00390844 0)
(-2.48583 -0.00388227 0)
(-2.49112 -0.00385824 0)
(-2.49645 -0.00383579 0)
(-2.50176 -0.0038161 0)
(-2.50711 -0.00379939 0)
(-2.51244 -0.00378643 0)
(-2.5178 -0.00377715 0)
(-2.52314 -0.00377165 0)
(-2.52851 -0.00377 0)
(-2.53385 -0.00377233 0)
(-2.53923 -0.00377856 0)
(-2.54458 -0.00378845 0)
(-2.54995 -0.00380172 0)
(-2.55531 -0.00381812 0)
(-2.5607 -0.00383692 0)
(-2.56606 -0.00385754 0)
(-2.57145 -0.00387925 0)
(-2.57683 -0.00390247 0)
(-2.58224 -0.00392581 0)
(-2.58763 -0.0039481 0)
(-2.59306 -0.00396743 0)
(-2.59848 -0.00398291 0)
(-2.60393 -0.00399257 0)
(-2.60939 -0.00399504 0)
(-2.61487 -0.00398788 0)
(-2.62036 -0.00397101 0)
(-2.62589 -0.00394498 0)
(-2.63142 -0.00390737 0)
(-2.63699 -0.00385605 0)
(-2.64257 -0.00379013 0)
(-2.64819 -0.00370903 0)
(-2.65384 -0.003612 0)
(-2.65954 -0.00349836 0)
(-2.66529 -0.00336666 0)
(-2.6711 -0.00321707 0)
(-2.67697 -0.00305087 0)
(-2.68294 -0.00286976 0)
(-2.68899 -0.00267405 0)
(-2.69514 -0.00246706 0)
(-2.70141 -0.00225377 0)
(-2.70781 -0.0020412 0)
(-2.71434 -0.0018391 0)
(-2.72103 -0.0016601 0)
(-2.72787 -0.00152125 0)
(-2.73489 -0.0014447 0)
(-2.7421 -0.00145818 0)
(-2.74951 -0.00159176 0)
(-2.75712 -0.00186675 0)
(-2.76496 -0.00231762 0)
(-2.77303 -0.0029852 0)
(-2.78137 -0.00389607 0)
(-2.79 -0.00510365 0)
(-2.79892 -0.00667354 0)
(-2.80814 -0.00855205 0)
(-2.81769 -0.0107629 0)
(-2.82757 -0.0132664 0)
(-2.83773 -0.0159634 0)
(-2.84808 -0.0186847 0)
(-2.85844 -0.0211561 0)
(-2.86842 -0.0229759 0)
(-2.87738 -0.0235835 0)
(-2.88421 -0.0222222 0)
(-2.88711 -0.0180279 0)
(-2.88438 -0.00842194 0)
(-2.86954 0.0109638 0)
(-2.83249 0.0460492 0)
(-2.76087 0.109087 0)
(-2.62324 0.215712 0)
(-2.44944 0.357098 0)
(-2.4657 -0.00096614 0)
(-2.4662 -0.00144563 0)
(-2.46992 -0.00182801 0)
(-2.47354 -0.00206805 0)
(-2.47724 -0.00220282 0)
(-2.48139 -0.00226875 0)
(-2.48543 -0.00229231 0)
(-2.48977 -0.00229112 0)
(-2.49394 -0.00227536 0)
(-2.49834 -0.00225173 0)
(-2.50255 -0.00222383 0)
(-2.50695 -0.00219389 0)
(-2.51117 -0.00216309 0)
(-2.51556 -0.00213201 0)
(-2.51977 -0.00210116 0)
(-2.52414 -0.00207029 0)
(-2.52834 -0.00203989 0)
(-2.53268 -0.00200941 0)
(-2.53686 -0.00197942 0)
(-2.54116 -0.0019495 0)
(-2.54533 -0.00192057 0)
(-2.54959 -0.00189241 0)
(-2.55372 -0.0018649 0)
(-2.55794 -0.00183536 0)
(-2.56204 -0.00180738 0)
(-2.56622 -0.00178139 0)
(-2.57028 -0.00175647 0)
(-2.57438 -0.00173152 0)
(-2.57837 -0.00170892 0)
(-2.58239 -0.00168823 0)
(-2.58631 -0.00167082 0)
(-2.59026 -0.00165506 0)
(-2.59412 -0.00164173 0)
(-2.59801 -0.00163009 0)
(-2.60182 -0.00162164 0)
(-2.60565 -0.00161629 0)
(-2.60942 -0.00161501 0)
(-2.61322 -0.00161748 0)
(-2.61696 -0.00162347 0)
(-2.62073 -0.00163318 0)
(-2.62445 -0.00164653 0)
(-2.62821 -0.0016634 0)
(-2.63193 -0.00168344 0)
(-2.63569 -0.0017063 0)
(-2.63943 -0.00173161 0)
(-2.64321 -0.0017587 0)
(-2.64698 -0.00178693 0)
(-2.6508 -0.00181585 0)
(-2.65462 -0.00184488 0)
(-2.65848 -0.00187315 0)
(-2.66237 -0.00189942 0)
(-2.66631 -0.00192205 0)
(-2.67028 -0.00193976 0)
(-2.6743 -0.00195077 0)
(-2.67837 -0.00195353 0)
(-2.6825 -0.00194584 0)
(-2.68668 -0.00192768 0)
(-2.69092 -0.00189943 0)
(-2.69523 -0.00185882 0)
(-2.69961 -0.00180312 0)
(-2.70407 -0.00173081 0)
(-2.70862 -0.00164078 0)
(-2.71324 -0.0015321 0)
(-2.71797 -0.00140401 0)
(-2.72279 -0.00125463 0)
(-2.72773 -0.0010837 0)
(-2.73276 -0.000889385 0)
(-2.73793 -0.000678262 0)
(-2.74322 -0.00044744 0)
(-2.74866 -0.000200126 0)
(-2.75424 5.89686e-05 0)
(-2.75998 0.000323019 0)
(-2.76589 0.000582173 0)
(-2.77198 0.000823676 0)
(-2.77825 0.00103139 0)
(-2.78473 0.00118346 0)
(-2.79143 0.00125247 0)
(-2.79836 0.00120963 0)
(-2.80553 0.00103401 0)
(-2.81298 0.000691272 0)
(-2.82071 0.000141554 0)
(-2.82874 -0.000645213 0)
(-2.83717 -0.00169111 0)
(-2.84581 -0.00313764 0)
(-2.85485 -0.00484449 0)
(-2.8643 -0.00689113 0)
(-2.8741 -0.00924481 0)
(-2.88423 -0.01182 0)
(-2.89455 -0.0144936 0)
(-2.90486 -0.0170557 0)
(-2.91472 -0.0192225 0)
(-2.92343 -0.02061 0)
(-2.92983 -0.0207428 0)
(-2.9321 -0.0190508 0)
(-2.92723 -0.0140903 0)
(-2.90989 -0.00304798 0)
(-2.86787 0.0181073 0)
(-2.78297 0.0564557 0)
(-2.62686 0.12037 0)
(-2.43811 0.200684 0)
(-2.53453 -7.13227e-05 0)
(-2.53551 -0.000155689 0)
(-2.53891 -0.000235754 0)
(-2.54234 -0.000281466 0)
(-2.54575 -0.000301565 0)
(-2.54961 -0.000304692 0)
(-2.55324 -0.000298062 0)
(-2.55717 -0.000286171 0)
(-2.5608 -0.000271693 0)
(-2.56466 -0.000256481 0)
(-2.5682 -0.000241274 0)
(-2.57195 -0.000226698 0)
(-2.57539 -0.000212702 0)
(-2.579 -0.000199465 0)
(-2.58232 -0.000186766 0)
(-2.58581 -0.000174563 0)
(-2.58902 -0.000162643 0)
(-2.59238 -0.000150943 0)
(-2.59549 -0.00013937 0)
(-2.59873 -0.000128107 0)
(-2.60175 -0.000117202 0)
(-2.60488 -0.000106868 -1.25623e-42)
(-2.60781 -9.63723e-05 0)
(-2.61084 -8.45723e-05 0)
(-2.6137 -7.43484e-05 0)
(-2.61664 -6.69196e-05 0)
(-2.61943 -6.09988e-05 0)
(-2.6223 -5.54407e-05 0)
(-2.62505 -5.11702e-05 0)
(-2.62786 -4.83031e-05 0)
(-2.63057 -4.79233e-05 0)
(-2.63333 -4.84173e-05 0)
(-2.63603 -4.8948e-05 0)
(-2.63876 -4.97123e-05 0)
(-2.64145 -5.25037e-05 0)
(-2.64417 -5.71045e-05 0)
(-2.64688 -6.43911e-05 0)
(-2.6496 -7.39134e-05 0)
(-2.65233 -8.53791e-05 0)
(-2.65508 -9.89992e-05 0)
(-2.65784 -0.00011462 0)
(-2.66064 -0.000132093 0)
(-2.66345 -0.00015107 0)
(-2.66631 -0.000171161 0)
(-2.66918 -0.000192022 0)
(-2.67211 -0.00021304 0)
(-2.67507 -0.000233542 0)
(-2.67809 -0.000253413 0)
(-2.68115 -0.000271206 0)
(-2.68427 -0.000286609 0)
(-2.68744 -0.000298408 0)
(-2.69068 -0.000305266 0)
(-2.69397 -0.00030556 0)
(-2.69734 -0.000297704 0)
(-2.70078 -0.000280121 0)
(-2.70429 -0.000251138 0)
(-2.70787 -0.000210084 0)
(-2.71154 -0.000156438 0)
(-2.71529 -8.85262e-05 0)
(-2.71913 -3.78238e-06 0)
(-2.72306 9.93781e-05 0)
(-2.72708 0.000222417 0)
(-2.73121 0.00036643 0)
(-2.73544 0.000532567 0)
(-2.73977 0.000721429 0)
(-2.74423 0.000935343 0)
(-2.7488 0.00117792 0)
(-2.7535 0.00144061 0)
(-2.75833 0.00172678 0)
(-2.76332 0.00203389 0)
(-2.76846 0.00235747 0)
(-2.77376 0.00269109 0)
(-2.77924 0.00302515 0)
(-2.78491 0.00334723 0)
(-2.79078 0.00364151 0)
(-2.79686 0.00388672 0)
(-2.80316 0.00405702 0)
(-2.80972 0.0041272 0)
(-2.81654 0.00407213 0)
(-2.82363 0.00385763 0)
(-2.83102 0.00344751 0)
(-2.83872 0.00279986 0)
(-2.84678 0.00190737 2.2421e-41)
(-2.85506 0.000636348 0)
(-2.8638 -0.000893841 0)
(-2.87289 -0.0027616 0)
(-2.8822 -0.00494628 0)
(-2.89188 -0.00738955 -8.68637e-41)
(-2.90171 -0.0100234 0)
(-2.91144 -0.0126948 0)
(-2.92063 -0.0152482 0)
(-2.92854 -0.0174758 0)
(-2.93399 -0.019169 0)
(-2.93512 -0.0201279 -1.18301e-40)
(-2.92868 -0.019944 0)
(-2.90869 -0.0177808 0)
(-2.86464 -0.0122931 -1.44504e-40)
(-2.7749 -0.00131719 0)
(-2.61188 0.0174403 0)
(-2.41817 0.0412906 0)
(-2.52247 0.000891222 0)
(-2.52339 0.00111774 0)
(-2.52686 0.00132589 0)
(-2.53034 0.00146335 0)
(-2.53382 0.00154711 0)
(-2.53776 0.00159548 0)
(-2.54149 0.00162028 0)
(-2.54552 0.00163065 0)
(-2.54927 0.00163128 0)
(-2.55326 0.00162564 0)
(-2.55695 0.00161569 0)
(-2.56085 0.00160283 0)
(-2.56445 0.00158815 0)
(-2.56823 0.0015722 0)
(-2.57174 0.00155572 0)
(-2.57541 0.00153888 0)
(-2.57882 0.00152237 0)
(-2.58237 0.00150606 0)
(-2.58568 0.00149052 0)
(-2.58913 0.00147529 0)
(-2.59235 0.00146089 0)
(-2.59569 0.00144672 1.70062e-41)
(-2.59883 0.001434 0)
(-2.60207 0.0014222 0)
(-2.60513 0.00141084 0)
(-2.60828 0.00139854 0)
(-2.61127 0.00138674 0)
(-2.61435 0.00137504 0)
(-2.61728 0.00136401 0)
(-2.62029 0.0013524 0)
(-2.62318 0.00133941 0)
(-2.62612 0.00132604 0)
(-2.62897 0.00131635 0)
(-2.63186 0.00130813 0)
(-2.63469 0.00129958 0)
(-2.63755 0.00129023 0)
(-2.64038 0.0012804 0)
(-2.64322 0.00127013 0)
(-2.64604 0.00125941 0)
(-2.64889 0.0012484 0)
(-2.65173 0.00123726 0)
(-2.6546 0.00122614 0)
(-2.65746 0.00121531 0)
(-2.66037 0.00120519 0)
(-2.66328 0.00119608 0)
(-2.66624 0.00118854 0)
(-2.66921 0.00118321 0)
(-2.67223 0.00118032 0)
(-2.67528 0.00118118 0)
(-2.67839 0.00118614 0)
(-2.68152 0.00119634 0)
(-2.68473 0.00121303 0)
(-2.68797 0.00123776 0)
(-2.69128 0.00127214 0)
(-2.69464 0.00131779 0)
(-2.69807 0.00137615 0)
(-2.70156 0.00144827 0)
(-2.70513 0.00153509 0)
(-2.70877 0.00163809 0)
(-2.71249 0.00175965 0)
(-2.71629 0.0019015 0)
(-2.72018 0.00206529 0)
(-2.72415 0.00225245 0)
(-2.72823 0.00246431 0)
(-2.7324 0.00270139 0)
(-2.73668 0.00296723 0)
(-2.74108 0.00326347 0)
(-2.74559 0.00358644 0)
(-2.75023 0.0039368 0)
(-2.75502 0.00431288 0)
(-2.75994 0.00471059 0)
(-2.76503 0.00512404 0)
(-2.77029 0.00554421 0)
(-2.77573 0.00595919 0)
(-2.78136 0.00635341 0)
(-2.7872 0.00670649 0)
(-2.79327 0.00699438 0)
(-2.7996 0.00719265 0)
(-2.80618 0.0072741 0)
(-2.81305 0.00720523 0)
(-2.82022 0.00694977 0)
(-2.82771 0.0064666 0)
(-2.83554 0.00572545 6.73023e-41)
(-2.84374 0.00466695 0)
(-2.85234 0.00330657 0)
(-2.86129 0.00161976 0)
(-2.87044 -0.000396492 0)
(-2.87997 -0.00272226 -3.20001e-41)
(-2.88934 -0.00532016 0)
(-2.89871 -0.00810735 0)
(-2.90748 -0.0110615 0)
(-2.91492 -0.0141459 0)
(-2.91989 -0.0173836 0)
(-2.92055 -0.0210269 -1.23585e-40)
(-2.91365 -0.0255763 0)
(-2.89331 -0.0320556 0)
(-2.84878 -0.0422102 -4.96179e-40)
(-2.76079 -0.0590312 0)
(-2.59984 -0.0855792 0)
(-2.40869 -0.116342 0)
(-2.43771 0.0017236 0)
(-2.43786 0.00238904 0)
(-2.44157 0.00290236 0)
(-2.44507 0.00323683 0)
(-2.44865 0.00344043 0)
(-2.4527 0.0035575 0)
(-2.45666 0.00361999 0)
(-2.46091 0.0036486 0)
(-2.46503 0.00365592 0)
(-2.46937 0.00364982 0)
(-2.47357 0.00363511 0)
(-2.47796 0.0036149 0)
(-2.4822 0.00359115 0)
(-2.48662 0.00356511 0)
(-2.4909 0.00353775 0)
(-2.49533 0.00350959 0)
(-2.49963 0.00348132 0)
(-2.50407 0.00345304 0)
(-2.50839 0.00342525 0)
(-2.51284 0.00339771 0)
(-2.51717 0.00337084 0)
(-2.52161 0.0033442 0)
(-2.52593 0.00331871 0)
(-2.53036 0.0032936 0)
(-2.53468 0.00326945 0)
(-2.53909 0.00324502 0)
(-2.5434 0.00322166 0)
(-2.54778 0.00319822 0)
(-2.55208 0.00317581 0)
(-2.55643 0.00315283 0)
(-2.5607 0.00312865 0)
(-2.56501 0.00310337 0)
(-2.56926 0.0030817 0)
(-2.57353 0.00306029 0)
(-2.57771 0.00303855 0)
(-2.58189 0.00301612 0)
(-2.586 0.00299482 0)
(-2.59011 0.00297416 0)
(-2.59416 0.00295408 0)
(-2.5982 0.00293517 0)
(-2.60218 0.00291769 0)
(-2.60616 0.00290173 0)
(-2.61009 0.00288765 0)
(-2.61403 0.00287593 0)
(-2.61791 0.00286683 0)
(-2.62181 0.00286093 0)
(-2.62566 0.00285891 0)
(-2.62953 0.00286124 0)
(-2.63336 0.00286884 0)
(-2.63722 0.00288243 0)
(-2.64105 0.00290296 0)
(-2.64491 0.00293163 0)
(-2.64875 0.00297004 0)
(-2.65262 0.00301992 0)
(-2.65649 0.00308321 0)
(-2.66039 0.00316106 0)
(-2.6643 0.00325464 0)
(-2.66825 0.00336514 0)
(-2.67222 0.00349456 0)
(-2.67624 0.00364474 0)
(-2.6803 0.0038178 0)
(-2.68441 0.00401557 0)
(-2.68858 0.00423975 0)
(-2.69281 0.00449186 0)
(-2.69711 0.00477328 0)
(-2.70149 0.00508684 0)
(-2.70595 0.00543346 0)
(-2.71052 0.00581241 0)
(-2.71517 0.00622374 0)
(-2.71996 0.00666622 0)
(-2.72486 0.00713634 0)
(-2.72992 0.0076287 0)
(-2.73511 0.00813508 0)
(-2.74049 0.00864393 0)
(-2.74604 0.0091403 0)
(-2.75181 0.00960477 0)
(-2.75779 0.0100149 0)
(-2.76403 0.0103464 0)
(-2.77053 0.0105715 0)
(-2.77733 0.0106572 0)
(-2.78444 0.0105669 0)
(-2.79189 0.010263 0)
(-2.7997 0.00970706 0)
(-2.80791 0.00885426 0)
(-2.81652 0.00768701 0)
(-2.82553 0.00618769 0)
(-2.8349 0.00432128 0)
(-2.84459 0.00209103 0)