/*--------------------------------*- C++ -*----------------------------------*\
| =========                 |                                                 |
| \\      /  F ield         | OpenFOAM: The Open Source CFD Toolbox           |
|  \\    /   O peration     | Version:  2.1.0                                 |
|   \\  /    A nd           | Web:      www.OpenFOAM.org                      |
|    \\/     M anipulation  |                                                 |
\*---------------------------------------------------------------------------*/
FoamFile
{
    version     2.0;
    format      ascii;
    class       volScalarField;
    location    "0.41";
    object      C0;
}
// * * * * * * * * * * * * * * * * * * * * * * * * * * * * * * * * * * * * * //

dimensions      [0 0 0 0 0 0 0];

internalField   nonuniform List<scalar> 
6400
(
0.000506845
0.000507676
0.000508729
0.000509847
0.00051099
0.00051215
0.000513326
0.00051452
0.000515731
0.000516962
0.000518213
0.000519487
0.000520785
0.000522108
0.000523457
0.000524835
0.000526243
0.000527682
0.000529153
0.000530659
0.000532202
0.000533782
0.000535402
0.000537062
0.000538766
0.000540515
0.000542311
0.000544155
0.00054605
0.000547997
0.000549999
0.000552058
0.000554176
0.000556355
0.000558598
0.000560906
0.000563283
0.000565731
0.000568252
0.000570849
0.000573525
0.000576282
0.000579125
0.000582054
0.000585075
0.00058819
0.000591402
0.000594715
0.000598132
0.000601657
0.000605294
0.000609047
0.00061292
0.000616917
0.000621042
0.000625301
0.000629697
0.000634236
0.000638922
0.000643761
0.000648758
0.000653918
0.000659246
0.000664749
0.000670433
0.000676302
0.000682365
0.000688626
0.000695093
0.000701771
0.000708669
0.000715792
0.000723147
0.000730741
0.000738581
0.000746673
0.000755025
0.000763641
0.000772529
0.000781692
0.000791136
0.000800863
0.000810874
0.000821169
0.000831746
0.000842597
0.000853713
0.000865079
0.000876674
0.00088847
0.000900431
0.00091251
0.000924635
0.000936696
0.000948516
0.000959876
0.000970599
0.000980368
0.000988674
0.00099483
0.000506411
0.000507241
0.000508281
0.00050938
0.000510504
0.000511644
0.000512801
0.000513974
0.000515165
0.000516375
0.000517605
0.000518858
0.000520134
0.000521435
0.000522762
0.000524117
0.000525501
0.000526917
0.000528364
0.000529846
0.000531364
0.000532919
0.000534513
0.000536147
0.000537825
0.000539546
0.000541314
0.000543131
0.000544997
0.000546915
0.000548887
0.000550916
0.000553003
0.000555151
0.000557362
0.000559638
0.000561982
0.000564396
0.000566884
0.000569446
0.000572087
0.00057481
0.000577616
0.00058051
0.000583494
0.000586572
0.000589747
0.000593022
0.000596402
0.000599889
0.000603488
0.000607203
0.000611038
0.000614997
0.000619085
0.000623306
0.000627666
0.000632168
0.000636818
0.000641621
0.000646583
0.00065171
0.000657006
0.000662478
0.000668131
0.000673973
0.00068001
0.000686248
0.000692693
0.000699354
0.000706237
0.000713349
0.000720698
0.000728291
0.000736135
0.000744238
0.000752607
0.00076125
0.000770172
0.00077938
0.000788879
0.000798675
0.000808771
0.000819167
0.000829864
0.000840858
0.000852141
0.0008637
0.000875513
0.00088755
0.000899766
0.000912093
0.000924435
0.00093665
0.000948556
0.000959903
0.000970495
0.000979963
0.000987783
0.000993374
0.00050543
0.000506243
0.00050725
0.000508311
0.000509394
0.000510494
0.000511608
0.000512739
0.000513887
0.000515053
0.000516239
0.000517446
0.000518676
0.000519929
0.000521209
0.000522515
0.000523849
0.000525213
0.000526609
0.000528038
0.000529501
0.000531001
0.000532539
0.000534116
0.000535734
0.000537396
0.000539103
0.000540856
0.000542658
0.000544511
0.000546417
0.000548378
0.000550396
0.000552472
0.000554611
0.000556813
0.000559082
0.00056142
0.000563829
0.000566312
0.000568872
0.000571512
0.000574234
0.000577042
0.00057994
0.000582929
0.000586014
0.000589199
0.000592486
0.00059588
0.000599384
0.000603004
0.000606742
0.000610603
0.000614593
0.000618714
0.000622974
0.000627375
0.000631924
0.000636626
0.000641486
0.000646511
0.000651706
0.000657077
0.000662631
0.000668374
0.000674313
0.000680456
0.000686809
0.000693379
0.000700176
0.000707206
0.000714477
0.000721999
0.000729778
0.000737825
0.000746147
0.000754753
0.000763652
0.000772852
0.000782362
0.000792189
0.000802339
0.00081282
0.000823633
0.000834782
0.000846263
0.000858066
0.000870174
0.000882553
0.00089515
0.000907881
0.000920619
0.000933185
0.000945328
0.000956794
0.000967371
0.000976687
0.000984279
0.000989658
0.000503854
0.000504631
0.000505585
0.000506587
0.000507609
0.000508645
0.000509696
0.000510761
0.000511842
0.000512941
0.000514058
0.000515194
0.000516352
0.000517532
0.000518736
0.000519965
0.000521221
0.000522505
0.000523819
0.000525164
0.000526542
0.000527953
0.000529401
0.000530887
0.000532411
0.000533976
0.000535585
0.000537237
0.000538937
0.000540684
0.000542482
0.000544332
0.000546237
0.000548198
0.000550218
0.000552299
0.000554444
0.000556655
0.000558934
0.000561285
0.000563709
0.000566211
0.000568792
0.000571455
0.000574205
0.000577043
0.000579974
0.000583001
0.000586128
0.000589358
0.000592696
0.000596145
0.00059971
0.000603394
0.000607203
0.000611141
0.000615214
0.000619425
0.000623781
0.000628286
0.000632947
0.000637769
0.000642758
0.00064792
0.000653263
0.000658792
0.000664516
0.00067044
0.000676573
0.000682923
0.000689497
0.000696304
0.000703353
0.000710653
0.000718212
0.000726041
0.00073415
0.00074255
0.000751249
0.000760261
0.000769596
0.000779266
0.000789282
0.000799656
0.000810398
0.000821518
0.000833022
0.000844908
0.000857168
0.000869776
0.000882682
0.0008958
0.000908996
0.000922068
0.000934736
0.000946761
0.000957906
0.000967785
0.000975914
0.000981686
0.00050166
0.000502385
0.000503267
0.000504189
0.000505128
0.000506081
0.000507045
0.000508022
0.000509014
0.00051002
0.000511043
0.000512083
0.000513143
0.000514222
0.000515323
0.000516447
0.000517595
0.000518768
0.000519969
0.000521197
0.000522456
0.000523746
0.000525068
0.000526425
0.000527818
0.000529249
0.000530718
0.000532229
0.000533783
0.000535381
0.000537025
0.000538718
0.000540461
0.000542257
0.000544107
0.000546013
0.000547979
0.000550006
0.000552097
0.000554254
0.00055648
0.000558778
0.000561149
0.000563598
0.000566128
0.00056874
0.000571439
0.000574228
0.000577111
0.00058009
0.00058317
0.000586355
0.000589649
0.000593055
0.000596578
0.000600223
0.000603994
0.000607896
0.000611935
0.000616115
0.000620441
0.00062492
0.000629558
0.000634359
0.000639332
0.000644481
0.000649815
0.000655339
0.000661063
0.000666992
0.000673137
0.000679504
0.000686103
0.000692944
0.000700036
0.00070739
0.000715017
0.000722928
0.000731138
0.000739659
0.000748507
0.000757697
0.000767248
0.000777178
0.000787506
0.000798252
0.000809436
0.000821074
0.000833172
0.000845728
0.000858713
0.000872067
0.000885681
0.000899377
0.000912895
0.000926003
0.000938428
0.000949713
0.000959203
0.000965888
0.000498855
0.000499511
0.000500301
0.000501125
0.000501962
0.000502809
0.000503666
0.000504533
0.000505412
0.000506303
0.000507207
0.000508127
0.000509062
0.000510013
0.000510983
0.000511973
0.000512983
0.000514014
0.000515069
0.000516149
0.000517254
0.000518386
0.000519547
0.000520737
0.000521959
0.000523214
0.000524503
0.000525828
0.00052719
0.000528592
0.000530034
0.000531519
0.000533048
0.000534623
0.000536247
0.00053792
0.000539646
0.000541426
0.000543262
0.000545157
0.000547113
0.000549133
0.000551219
0.000553373
0.000555598
0.000557898
0.000560274
0.000562731
0.00056527
0.000567896
0.000570612
0.000573421
0.000576327
0.000579334
0.000582444
0.000585664
0.000588996
0.000592445
0.000596016
0.000599713
0.000603542
0.000607506
0.000611613
0.000615866
0.000620272
0.000624838
0.000629568
0.00063447
0.000639551
0.000644818
0.000650278
0.000655941
0.000661814
0.000667907
0.000674229
0.000680793
0.000687609
0.00069469
0.000702052
0.000709709
0.00071768
0.000725986
0.000734648
0.000743693
0.000753149
0.000763049
0.000773427
0.000784318
0.000795758
0.000807773
0.000820378
0.000833561
0.000847274
0.000861416
0.000875796
0.000890176
0.000904254
0.000917457
0.000928828
0.0009367
0.00049547
0.000496042
0.000496724
0.000497432
0.000498148
0.000498871
0.000499601
0.000500337
0.000501082
0.000501835
0.000502598
0.000503372
0.000504157
0.000504956
0.000505768
0.000506595
0.000507438
0.000508298
0.000509176
0.000510073
0.000510991
0.000511931
0.000512893
0.000513879
0.000514891
0.000515929
0.000516995
0.000518089
0.000519215
0.000520372
0.000521562
0.000522787
0.000524048
0.000525347
0.000526686
0.000528065
0.000529487
0.000530954
0.000532468
0.000534029
0.000535641
0.000537305
0.000539023
0.000540799
0.000542632
0.000544527
0.000546486
0.000548511
0.000550604
0.000552769
0.000555008
0.000557324
0.00055972
0.000562199
0.000564765
0.000567421
0.00057017
0.000573015
0.000575962
0.000579012
0.000582172
0.000585445
0.000588835
0.000592347
0.000595985
0.000599756
0.000603663
0.000607714
0.000611913
0.000616267
0.000620783
0.000625468
0.000630329
0.000635376
0.000640618
0.000646064
0.000651726
0.000657617
0.000663751
0.000670146
0.000676819
0.000683794
0.000691095
0.000698752
0.000706801
0.000715282
0.000724242
0.000733733
0.000743816
0.000754549
0.000765992
0.000778196
0.000791196
0.000804998
0.000819544
0.000834596
0.000849858
0.000864672
0.000877743
0.000886653
0.000491568
0.000492042
0.000492602
0.000493179
0.000493759
0.000494342
0.000494927
0.000495516
0.000496107
0.000496703
0.000497305
0.000497912
0.000498526
0.000499148
0.000499778
0.000500418
0.000501068
0.00050173
0.000502403
0.00050309
0.00050379
0.000504505
0.000505237
0.000505984
0.00050675
0.000507534
0.000508338
0.000509162
0.000510008
0.000510877
0.00051177
0.000512688
0.000513633
0.000514604
0.000515605
0.000516635
0.000517696
0.00051879
0.000519918
0.000521081
0.000522281
0.000523519
0.000524798
0.000526117
0.000527481
0.000528889
0.000530344
0.000531847
0.000533401
0.000535008
0.00053667
0.000538388
0.000540165
0.000542004
0.000543906
0.000545875
0.000547912
0.000550021
0.000552203
0.000554463
0.000556802
0.000559225
0.000561734
0.000564333
0.000567025
0.000569813
0.000572702
0.000575697
0.0005788
0.000582018
0.000585355
0.000588816
0.000592409
0.000596138
0.000600013
0.000604041
0.000608232
0.000612596
0.000617147
0.000621898
0.000626867
0.000632075
0.000637545
0.000643306
0.000649392
0.000655843
0.000662708
0.000670045
0.000677923
0.000686421
0.000695623
0.000705628
0.000716539
0.000728471
0.000741539
0.00075557
0.000770299
0.000785122
0.000798571
0.000807713
0.000487248
0.000487615
0.000488043
0.000488478
0.000488912
0.000489343
0.000489771
0.000490198
0.000490623
0.000491048
0.000491473
0.000491898
0.000492324
0.000492753
0.000493183
0.000493618
0.000494056
0.000494498
0.000494946
0.000495399
0.000495859
0.000496327
0.000496801
0.000497285
0.000497777
0.000498279
0.000498792
0.000499316
0.000499851
0.0005004
0.000500961
0.000501537
0.000502127
0.000502732
0.000503355
0.000503994
0.000504651
0.000505327
0.000506023
0.000506739
0.000507476
0.000508237
0.00050902
0.000509828
0.000510661
0.000511521
0.000512409
0.000513325
0.000514271
0.000515248
0.000516258
0.000517301
0.000518379
0.000519493
0.000520645
0.000521836
0.000523067
0.00052434
0.000525656
0.000527017
0.000528424
0.00052988
0.000531386
0.000532944
0.000534556
0.000536223
0.000537948
0.000539733
0.000541581
0.000543493
0.000545474
0.000547525
0.000549651
0.000551856
0.000554144
0.00055652
0.00055899
0.000561562
0.000564245
0.000567048
0.000569983
0.000573066
0.000576313
0.000579745
0.000583388
0.00058727
0.000591426
0.000595901
0.000600754
0.000606047
0.000611856
0.000618275
0.000625419
0.000633436
0.000642525
0.000652873
0.000664058
0.000675778
0.000686819
0.000694497
0.00048265
0.000482903
0.000483193
0.000483482
0.000483764
0.000484038
0.000484304
0.000484563
0.000484815
0.000485061
0.000485302
0.000485537
0.000485767
0.000485993
0.000486215
0.000486433
0.000486649
0.000486862
0.000487072
0.000487281
0.000487488
0.000487694
0.000487899
0.000488104
0.000488308
0.000488513
0.000488718
0.000488925
0.000489132
0.000489342
0.000489553
0.000489766
0.000489982
0.0004902
0.000490422
0.000490648
0.000490877
0.00049111
0.000491348
0.00049159
0.000491838
0.000492091
0.00049235
0.000492615
0.000492886
0.000493165
0.00049345
0.000493743
0.000494043
0.000494352
0.000494669
0.000494995
0.00049533
0.000495674
0.000496028
0.000496392
0.000496765
0.00049715
0.000497544
0.000497949
0.000498365
0.000498792
0.00049923
0.000499679
0.00050014
0.000500611
0.000501094
0.000501589
0.000502094
0.000502612
0.000503141
0.000503682
0.000504236
0.000504803
0.000505383
0.000505979
0.000506592
0.000507225
0.00050788
0.000508562
0.000509275
0.000510027
0.000510825
0.000511678
0.000512597
0.000513592
0.000514673
0.000515848
0.000517151
0.000518602
0.000520224
0.000522053
0.00052414
0.000526556
0.000529407
0.000532836
0.000536945
0.000541524
0.000546136
0.000549617
0.000477935
0.000478075
0.000478229
0.000478373
0.000478504
0.000478622
0.000478727
0.000478819
0.000478899
0.000478967
0.000479024
0.000479069
0.000479104
0.000479127
0.00047914
0.000479143
0.000479136
0.000479118
0.000479091
0.000479054
0.000479007
0.000478951
0.000478885
0.00047881
0.000478725
0.000478631
0.000478528
0.000478415
0.000478292
0.00047816
0.000478019
0.000477867
0.000477706
0.000477535
0.000477354
0.000477162
0.00047696
0.000476748
0.000476524
0.000476289
0.000476043
0.000475786
0.000475516
0.000475234
0.000474939
0.000474631
0.00047431
0.000473975
0.000473625
0.00047326
0.00047288
0.000472483
0.00047207
0.000471639
0.00047119
0.000470721
0.000470233
0.000469723
0.000469191
0.000468637
0.000468058
0.000467454
0.000466822
0.000466162
0.000465471
0.000464748
0.00046399
0.000463197
0.000462364
0.000461491
0.000460574
0.000459611
0.000458599
0.000457535
0.000456416
0.000455238
0.000453998
0.000452694
0.00045132
0.000449875
0.000448354
0.000446754
0.000445071
0.000443302
0.000441444
0.000439492
0.000437447
0.000435303
0.000433036
0.000430616
0.000427996
0.000425131
0.000421986
0.000418529
0.000414721
0.000410512
0.000405861
0.000400823
0.000395874
0.000392298
0.000473276
0.00047331
0.000473335
0.000473342
0.00047333
0.0004733
0.000473252
0.000473185
0.000473101
0.000473
0.000472882
0.000472746
0.000472593
0.000472423
0.000472237
0.000472033
0.000471812
0.000471574
0.000471319
0.000471046
0.000470756
0.000470449
0.000470123
0.000469779
0.000469417
0.000469036
0.000468636
0.000468216
0.000467777
0.000467317
0.000466837
0.000466335
0.000465812
0.000465267
0.000464698
0.000464106
0.00046349
0.00046285
0.000462183
0.000461491
0.000460771
0.000460023
0.000459246
0.000458439
0.000457601
0.000456731
0.000455829
0.000454891
0.000453919
0.000452909
0.000451861
0.000450774
0.000449645
0.000448473
0.000447257
0.000445994
0.000444683
0.000443321
0.000441907
0.000440437
0.000438911
0.000437324
0.000435674
0.000433957
0.000432172
0.000430313
0.000428378
0.000426362
0.000424261
0.00042207
0.000419785
0.0004174
0.00041491
0.000412308
0.000409587
0.000406742
0.000403763
0.000400644
0.000397375
0.000393946
0.000390348
0.000386569
0.000382598
0.000378419
0.000374017
0.000369375
0.00036447
0.000359276
0.000353754
0.000347861
0.000341551
0.000334731
0.000327244
0.000319026
0.000310023
0.000300187
0.000289588
0.000278618
0.000268417
0.000261451
0.000468827
0.000468765
0.000468674
0.000468557
0.000468416
0.00046825
0.000468062
0.000467851
0.000467618
0.000467361
0.000467083
0.000466781
0.000466457
0.000466111
0.000465741
0.000465348
0.000464932
0.000464492
0.000464028
0.000463539
0.000463026
0.000462488
0.000461924
0.000461334
0.000460717
0.000460073
0.000459401
0.0004587
0.00045797
0.00045721
0.000456419
0.000455597
0.000454742
0.000453853
0.00045293
0.000451972
0.000450976
0.000449944
0.000448872
0.00044776
0.000446606
0.00044541
0.000444169
0.000442882
0.000441548
0.000440165
0.000438731
0.000437244
0.000435703
0.000434105
0.000432449
0.000430731
0.000428951
0.000427104
0.00042519
0.000423204
0.000421144
0.000419008
0.000416791
0.000414491
0.000412104
0.000409626
0.000407054
0.000404382
0.000401606
0.000398721
0.000395722
0.000392604
0.00038936
0.000385984
0.00038247
0.00037881
0.000374996
0.000371019
0.000366872
0.000362543
0.000358023
0.000353299
0.000348361
0.000343194
0.000337784
0.000332116
0.000326173
0.000319935
0.00031338
0.000306485
0.000299221
0.000291554
0.000283446
0.000274851
0.000265719
0.000255983
0.000245575
0.000234338
0.0002223
0.000209508
0.000196173
0.000182875
0.000170921
0.000162877
0.000464721
0.000464577
0.000464384
0.000464158
0.000463903
0.00046362
0.00046331
0.000462972
0.000462607
0.000462215
0.000461796
0.000461349
0.000460875
0.000460373
0.000459843
0.000459284
0.000458696
0.000458079
0.000457432
0.000456754
0.000456045
0.000455305
0.000454532
0.000453726
0.000452886
0.000452012
0.000451102
0.000450155
0.000449171
0.000448149
0.000447087
0.000445984
0.00044484
0.000443652
0.00044242
0.000441142
0.000439816
0.000438442
0.000437018
0.000435541
0.000434011
0.000432424
0.000430781
0.000429078
0.000427313
0.000425485
0.000423591
0.000421629
0.000419595
0.000417488
0.000415306
0.000413044
0.0004107
0.000408271
0.000405754
0.000403145
0.000400441
0.000397638
0.000394731
0.000391717
0.000388591
0.000385349
0.000381986
0.000378495
0.000374872
0.000371111
0.000367205
0.000363148
0.000358933
0.000354552
0.000349996
0.000345259
0.00034033
0.000335199
0.000329856
0.00032429
0.00031849
0.000312441
0.000306132
0.000299546
0.00029267
0.000285487
0.000277979
0.000270127
0.000261911
0.000253309
0.000244298
0.000234852
0.000224946
0.000214555
0.000203655
0.000192231
0.000180279
0.000167747
0.000154679
0.000141221
0.000127669
0.000114613
0.000103179
9.54345e-05
0.000461063
0.000460852
0.000460574
0.000460257
0.000459906
0.000459524
0.00045911
0.000458666
0.00045819
0.000457684
0.000457146
0.000456577
0.000455977
0.000455344
0.000454679
0.00045398
0.000453248
0.000452482
0.000451681
0.000450845
0.000449972
0.000449063
0.000448115
0.000447129
0.000446103
0.000445036
0.000443927
0.000442776
0.000441581
0.00044034
0.000439053
0.000437717
0.000436333
0.000434897
0.000433409
0.000431867
0.000430269
0.000428614
0.000426899
0.000425122
0.000423282
0.000421377
0.000419403
0.00041736
0.000415243
0.000413052
0.000410782
0.000408432
0.000405998
0.000403478
0.000400868
0.000398165
0.000395365
0.000392465
0.000389461
0.000386349
0.000383125
0.000379785
0.000376323
0.000372736
0.000369018
0.000365164
0.000361168
0.000357025
0.000352727
0.000348269
0.000343644
0.000338844
0.000333862
0.00032869
0.000323318
0.000317738
0.000311941
0.000305916
0.000299652
0.000293137
0.000286361
0.000279311
0.000271973
0.000264335
0.000256382
0.0002481
0.000239474
0.000230491
0.000221135
0.000211394
0.000201254
0.000190706
0.000179746
0.000168377
0.000156615
0.000144496
0.000132079
0.000119453
0.000106654
9.38894e-05
8.14693e-05
6.99008e-05
6.00038e-05
5.31826e-05
0.000457936
0.000457671
0.000457325
0.000456934
0.000456507
0.000456044
0.000455547
0.000455017
0.000454452
0.000453854
0.000453221
0.000452554
0.000451851
0.000451113
0.000450339
0.000449529
0.000448681
0.000447795
0.000446871
0.000445907
0.000444903
0.000443858
0.00044277
0.00044164
0.000440465
0.000439245
0.000437979
0.000436664
0.000435301
0.000433887
0.000432422
0.000430903
0.000429329
0.000427698
0.00042601
0.000424261
0.00042245
0.000420575
0.000418633
0.000416624
0.000414544
0.000412391
0.000410163
0.000407857
0.000405471
0.000403001
0.000400445
0.000397799
0.000395061
0.000392228
0.000389295
0.000386259
0.000383116
0.000379863
0.000376495
0.000373009
0.000369398
0.00036566
0.000361789
0.000357779
0.000353627
0.000349324
0.000344867
0.000340249
0.000335463
0.000330502
0.00032536
0.000320029
0.0003145
0.000308767
0.00030282
0.00029665
0.000290248
0.000283604
0.000276707
0.000269548
0.000262115
0.000254397
0.000246382
0.00023806
0.000229419
0.000220448
0.000211138
0.000201479
0.000191465
0.00018109
0.000170355
0.000159265
0.000147835
0.000136093
0.000124088
0.000111893
9.96206e-05
8.74244e-05
7.53949e-05
6.37369e-05
5.27415e-05
4.2819e-05
3.4529e-05
2.87168e-05
0.000455399
0.000455095
0.000454697
0.00045425
0.000453763
0.00045324
0.00045268
0.000452084
0.000451452
0.000450783
0.000450078
0.000449335
0.000448555
0.000447737
0.00044688
0.000445984
0.000445048
0.000444071
0.000443052
0.000441992
0.000440887
0.000439739
0.000438546
0.000437306
0.000436019
0.000434683
0.000433297
0.00043186
0.000430371
0.000428827
0.000427228
0.000425571
0.000423856
0.00042208
0.000420242
0.00041834
0.000416371
0.000414334
0.000412227
0.000410046
0.000407791
0.000405458
0.000403045
0.000400549
0.000397968
0.000395298
0.000392537
0.000389681
0.000386727
0.000383672
0.000380513
0.000377244
0.000373863
0.000370366
0.000366748
0.000363005
0.000359132
0.000355125
0.000350979
0.000346688
0.000342247
0.00033765
0.000332892
0.000327966
0.000322866
0.000317586
0.000312117
0.000306454
0.000300588
0.000294511
0.000288215
0.000281692
0.000274933
0.000267929
0.00026067
0.000253148
0.000245351
0.000237272
0.0002289
0.000220228
0.000211245
0.000201946
0.000192324
0.000182376
0.000172099
0.000161497
0.000150577
0.000139356
0.000127858
0.000116125
0.000104221
9.22369e-05
8.03017e-05
6.85869e-05
5.7257e-05
4.64778e-05
3.65243e-05
2.77511e-05
2.05796e-05
1.55187e-05
0.000453492
0.000453161
0.000452728
0.000452241
0.000451714
0.000451148
0.000450544
0.000449902
0.000449222
0.000448504
0.000447748
0.000446953
0.000446118
0.000445243
0.000444328
0.000443372
0.000442373
0.000441332
0.000440248
0.000439119
0.000437945
0.000436724
0.000435456
0.000434139
0.000432773
0.000431356
0.000429887
0.000428365
0.000426787
0.000425153
0.000423461
0.000421709
0.000419896
0.00041802
0.000416078
0.00041407
0.000411993
0.000409845
0.000407624
0.000405327
0.000402953
0.000400498
0.00039796
0.000395337
0.000392625
0.000389822
0.000386925
0.000383931
0.000380835
0.000377636
0.000374329
0.000370911
0.000367378
0.000363726
0.00035995
0.000356047
0.000352012
0.000347841
0.000343527
0.000339068
0.000334456
0.000329687
0.000324755
0.000319655
0.00031438
0.000308923
0.000303279
0.00029744
0.000291399
0.00028515
0.000278684
0.000271994
0.000265073
0.000257911
0.000250502
0.000242836
0.000234906
0.000226704
0.000218223
0.000209456
0.000200397
0.000191041
0.000181387
0.000171432
0.000161179
0.000150635
0.000139812
0.000128727
0.000117409
0.000105901
9.4264e-05
8.25853e-05
7.09835e-05
5.96116e-05
4.86628e-05
3.82915e-05
2.87529e-05
2.03927e-05
1.36221e-05
8.85968e-06
0.000452234
0.000451889
0.000451436
0.000450926
0.000450374
0.000449782
0.000449152
0.000448482
0.000447774
0.000447027
0.000446239
0.000445412
0.000444544
0.000443635
0.000442685
0.000441691
0.000440655
0.000439575
0.00043845
0.000437279
0.000436062
0.000434797
0.000433484
0.000432121
0.000430706
0.00042924
0.00042772
0.000426145
0.000424514
0.000422825
0.000421076
0.000419266
0.000417394
0.000415457
0.000413454
0.000411382
0.00040924
0.000407026
0.000404736
0.00040237
0.000399925
0.000397398
0.000394787
0.000392088
0.0003893
0.00038642
0.000383443
0.000380369
0.000377192
0.000373911
0.00037052
0.000367018
0.0003634
0.000359662
0.0003558
0.00035181
0.000347688
0.000343429
0.000339028
0.000334482
0.000329784
0.000324929
0.000319913
0.00031473
0.000309373
0.000303837
0.000298117
0.000292205
0.000286095
0.000279781
0.000273256
0.000266514
0.000259547
0.000252348
0.000244911
0.000237228
0.000229294
0.000221102
0.000212647
0.000203923
0.000194927
0.000185656
0.000176109
0.000166289
0.000156199
0.000145847
0.000135247
0.000124416
0.00011338
0.000102175
9.08523e-05
7.94809e-05
6.81574e-05
5.70063e-05
4.61908e-05
3.58702e-05
2.62719e-05
1.77357e-05
1.07266e-05
5.74953e-06
0.000451623
0.000451277
0.000450815
0.000450297
0.000449735
0.000449132
0.000448491
0.00044781
0.00044709
0.00044633
0.000445529
0.000444689
0.000443807
0.000442883
0.000441917
0.000440908
0.000439855
0.000438758
0.000437616
0.000436427
0.000435191
0.000433907
0.000432574
0.000431191
0.000429755
0.000428267
0.000426725
0.000425128
0.000423473
0.00042176
0.000419987
0.000418153
0.000416255
0.000414292
0.000412261
0.000410162
0.000407993
0.00040575
0.000403431
0.000401036
0.00039856
0.000396003
0.00039336
0.000390631
0.000387811
0.000384898
0.000381889
0.000378782
0.000375572
0.000372257
0.000368834
0.000365298
0.000361646
0.000357874
0.000353979
0.000349956
0.000345801
0.00034151
0.000337078
0.000332501
0.000327774
0.000322891
0.000317848
0.00031264
0.00030726
0.000301703
0.000295963
0.000290036
0.000283913
0.00027759
0.000271061
0.000264318
0.000257356
0.000250168
0.000242749
0.000235092
0.000227191
0.000219042
0.000210639
0.000201979
0.000193059
0.000183877
0.000174434
0.000164732
0.000154776
0.000144575
0.000134142
0.000123494
0.000112653
0.000101648
9.05176e-05
7.93137e-05
6.81161e-05
5.70483e-05
4.62653e-05
3.59253e-05
2.62183e-05
1.74284e-05
9.99985e-06
4.52817e-06
0.000997972
0.000997972
0.000997471
0.000996767
0.000995936
0.000994999
0.000993962
0.000992818
0.000991556
0.000990155
0.000988585
0.000986809
0.000984777
0.000982432
0.000979713
0.00097657
0.000972993
0.000969074
0.000965143
0.000962086
0.000996053
0.000995885
0.000995003
0.000993807
0.000992423
0.000990895
0.000989237
0.000987443
0.000985497
0.00098337
0.000981018
0.000978384
0.000975399
0.00097198
0.000968047
0.00096354
0.000958461
0.000952978
0.000947609
0.000943612
0.000992102
0.000991497
0.000989998
0.000988068
0.000985882
0.000983511
0.000980981
0.000978293
0.000975424
0.000972334
0.000968963
0.000965232
0.000961043
0.000956291
0.000950869
0.00094471
0.00093784
0.000930517
0.000923476
0.000918395
0.000983918
0.00098262
0.000980217
0.000977279
0.000974024
0.000970552
0.000966906
0.00096309
0.000959081
0.000954824
0.000950241
0.000945225
0.00093965
0.00093338
0.000926286
0.000918294
0.000909468
0.000900178
0.000891409
0.000885297
0.000967801
0.000965593
0.00096204
0.000957864
0.000953337
0.000948587
0.000943672
0.000938602
0.00093335
0.00092785
0.000922
0.000915667
0.000908693
0.000900912
0.000892174
0.000882403
0.000871715
0.000860617
0.000850363
0.000843487
0.000938135
0.000934939
0.000930174
0.000924729
0.000918937
0.000912952
0.000906847
0.000900637
0.00089429
0.00088773
0.000880831
0.000873433
0.000865355
0.0008564
0.000846399
0.000835289
0.000823249
0.000810934
0.00079985
0.000792676
0.00088754
0.000883571
0.0008779
0.000871543
0.000864885
0.000858106
0.000851286
0.000844443
0.000837544
0.000830497
0.000823161
0.000815364
0.000806909
0.000797578
0.000787194
0.00077571
0.000763375
0.000750986
0.000740201
0.000733424
0.000808207
0.000804095
0.000798338
0.000791967
0.000785384
0.000778778
0.000772228
0.000765756
0.000759313
0.0007528
0.000746087
0.000739018
0.000731397
0.00072301
0.000713678
0.000703377
0.000692414
0.000681673
0.000672731
0.000667341
0.000694938
0.000691705
0.000687184
0.00068223
0.000677181
0.000672204
0.000667361
0.000662655
0.000658027
0.000653408
0.000648718
0.000643845
0.000638633
0.000632913
0.000626524
0.000619458
0.000612018
0.000604988
0.00059951
0.000596527
0.000550116
0.000548897
0.000547146
0.000545253
0.000543374
0.000541599
0.000539943
0.000538402
0.000536963
0.00053562
0.000534345
0.000533107
0.000531836
0.00053048
0.000528954
0.000527253
0.000525497
0.00052399
0.000523116
0.000522961
0.000391993
0.000393393
0.000395379
0.000397582
0.000399867
0.000402167
0.00040449
0.000406869
0.000409337
0.000411933
0.000414693
0.000417679
0.000420965
0.000424634
0.000428772
0.000433346
0.000438122
0.00044268
0.00044653
0.000449075
0.000261219
0.000264312
0.000268638
0.00027344
0.000278427
0.000283466
0.000288518
0.000293591
0.000298757
0.000304104
0.000309721
0.000315729
0.000322287
0.000329555
0.000337667
0.000346593
0.000355993
0.000365044
0.000372525
0.000377183
0.000162537
0.000166259
0.000171492
0.00017734
0.000183462
0.000189707
0.000196019
0.000202393
0.000208886
0.000215596
0.00022266
0.000230229
0.000238494
0.000247646
0.000257839
0.000269069
0.000281017
0.000292806
0.000302815
0.000309069
9.46886e-05
9.81696e-05
0.000103178
0.000108844
0.000114841
0.000121028
0.000127344
0.000133787
0.0001404
0.000147271
0.000154541
0.00016237
0.000170945
0.000180461
0.000191076
0.000202821
0.000215444
0.000228168
0.000239347
0.000246469
5.19236e-05
5.46632e-05
5.87916e-05
6.35534e-05
6.8668e-05
7.40114e-05
7.95317e-05
8.52256e-05
9.11306e-05
9.73241e-05
0.000103926
0.000111085
0.00011897
0.000127761
0.00013761
0.000148571
0.00016047
0.000172677
0.000183733
0.00019096
2.70282e-05
2.88847e-05
3.1922e-05
3.55272e-05
3.94713e-05
4.36525e-05
4.80286e-05
5.25976e-05
5.73922e-05
6.24772e-05
6.79498e-05
7.3935e-05
8.05775e-05
8.80313e-05
9.64346e-05
0.000105855
0.000116183
0.000126939
0.000136931
0.000143713
1.3548e-05
1.46159e-05
1.66502e-05
1.91648e-05
2.19761e-05
2.50036e-05
2.82167e-05
3.16166e-05
3.52308e-05
3.91114e-05
4.33341e-05
4.7998e-05
5.32199e-05
5.91263e-05
6.58353e-05
7.34168e-05
8.1811e-05
9.0671e-05
9.90701e-05
0.000104986
6.70185e-06
7.18057e-06
8.4397e-06
1.00823e-05
1.19606e-05
1.40162e-05
1.62305e-05
1.86082e-05
2.11722e-05
2.3962e-05
2.70346e-05
3.04642e-05
3.43404e-05
3.8763e-05
4.38283e-05
4.96011e-05
5.60555e-05
6.29522e-05
6.9604e-05
7.4438e-05
3.38342e-06
3.49596e-06
4.23187e-06
5.24762e-06
6.43359e-06
7.75377e-06
9.20004e-06
1.07789e-05
1.25079e-05
1.44159e-05
1.65435e-05
1.89438e-05
2.16824e-05
2.48339e-05
2.84737e-05
3.26581e-05
3.73832e-05
4.24953e-05
4.751e-05
5.12551e-05
1.75492e-06
1.7333e-06
2.15111e-06
2.74835e-06
3.46033e-06
4.26911e-06
5.17251e-06
6.17661e-06
7.29418e-06
8.54496e-06
9.95655e-06
1.15652e-05
1.34163e-05
1.55626e-05
1.80597e-05
2.09539e-05
2.42547e-05
2.78775e-05
3.15138e-05
3.43433e-05
0.001
0.001
0.001
0.001
0.001
0.001
0.001
0.001
0.001
0.001
0.001
0.001
0.001
0.001
0.001
0.001
0.001
0.001
0.001
0.001
0.001
0.001
0.001
0.001
0.001
0.001
0.001
0.001
0.001
0.001
0.001
0.001
0.001
0.001
0.001
0.001
0.001
0.001
0.001
0.001
0.001
0.001
0.001
0.001
0.001
0.001
0.001
0.001
0.001
0.001
0.001
0.001
0.001
0.001
0.001
0.001
0.001
0.001
0.001
0.001
0.001
0.001
0.001
0.001
0.001
0.001
0.001
0.001
0.001
0.001
0.001
0.001
0.001
0.001
0.001
0.001
0.001
0.001
0.001
0.001
0.001
0.001
0.001
0.001
0.001
0.001
0.001
0.001
0.001
0.001
0.001
0.001
0.001
0.001
0.001
0.001
0.001
0.001
0.001
0.001
0.001