/*--------------------------------*- C++ -*----------------------------------*\
| =========                 |                                                 |
| \\      /  F ield         | OpenFOAM: The Open Source CFD Toolbox           |
|  \\    /   O peration     | Version:  2.1.0                                 |
|   \\  /    A nd           | Web:      www.OpenFOAM.org                      |
|    \\/     M anipulation  |                                                 |
\*---------------------------------------------------------------------------*/
FoamFile
{
    version     2.0;
    format      ascii;
    class       volScalarField;
    location    "0.41";
    object      k;
}
// * * * * * * * * * * * * * * * * * * * * * * * * * * * * * * * * * * * * * //

dimensions      [0 2 -2 0 0 0 0];

internalField   nonuniform List<scalar> 
6400
(
0.0328131
0.0328532
0.0328568
0.0328511
0.0328286
0.0328177
0.0327873
0.0327726
0.0327385
0.0327214
0.0326853
0.0326648
0.0326277
0.0326032
0.0325653
0.0325365
0.0324976
0.0324646
0.0324245
0.0323876
0.0323459
0.0323056
0.0322624
0.0322192
0.0321746
0.0321289
0.0320826
0.0320345
0.0319862
0.0319356
0.0318849
0.0318318
0.0317785
0.0317225
0.0316661
0.031607
0.0315471
0.0314843
0.0314202
0.0313527
0.0312829
0.0312089
0.0311315
0.031049
0.0309618
0.0308685
0.030769
0.030662
0.0305475
0.0304244
0.0302922
0.0301502
0.0299974
0.0298307
0.0296482
0.0294472
0.0292338
0.0290121
0.0287786
0.028536
0.0282824
0.0280203
0.0277476
0.027466
0.0271721
0.0268688
0.0265522
0.0262248
0.0258806
0.0255211
0.0251452
0.0247504
0.0243373
0.0239039
0.0234507
0.0229771
0.0224841
0.0219731
0.0214456
0.0209047
0.0203522
0.0197894
0.0192113
0.0185982
0.0179272
0.0172327
0.0164834
0.0156609
0.0147297
0.013639
0.0123155
0.0106496
0.00855732
0.00607302
0.00341566
0.00235772
0.00274699
0.00552402
0.008762
0.00991663
0.0519362
0.0522688
0.0524214
0.0527011
0.0528738
0.0531515
0.0533429
0.0536146
0.0538236
0.0540899
0.054314
0.0545765
0.0548126
0.0550729
0.0553184
0.0555776
0.0558299
0.0560887
0.0563456
0.0566045
0.0568647
0.0571242
0.0573874
0.057649
0.0579161
0.0581824
0.0584552
0.0587275
0.0590068
0.059286
0.0595721
0.0598585
0.0601516
0.0604456
0.0607459
0.0610479
0.061356
0.0616666
0.0619837
0.0623041
0.0626297
0.0629568
0.0632874
0.0636185
0.0639509
0.0642816
0.0646103
0.0649342
0.0652522
0.0655618
0.0658614
0.0661505
0.0664331
0.066704
0.0669574
0.0671864
0.0673978
0.0676043
0.0677923
0.067966
0.0681165
0.0682549
0.0683692
0.0684731
0.0685482
0.0686061
0.0686332
0.0686422
0.0686166
0.0685458
0.0684332
0.0682659
0.0680393
0.0677434
0.0673697
0.0669096
0.0663529
0.0656929
0.06492
0.0640305
0.0630181
0.061885
0.0606331
0.0592591
0.0577212
0.0559547
0.053939
0.0516086
0.0489044
0.0457544
0.042103
0.0379113
0.0332379
0.0283524
0.0233627
0.0186254
0.0149778
0.012397
0.010787
0.00922072
0.0576178
0.0581121
0.0583374
0.0587472
0.059026
0.059421
0.0597328
0.0601182
0.0604536
0.0608341
0.0611871
0.0615662
0.0619326
0.0623125
0.0626892
0.0630711
0.0634554
0.0638397
0.0642291
0.0646149
0.0650068
0.0653925
0.0657844
0.0661701
0.0665628
0.0669511
0.0673479
0.0677406
0.0681411
0.0685381
0.0689418
0.0693426
0.0697488
0.0701526
0.0705605
0.0709661
0.0713743
0.0717796
0.0721852
0.0725869
0.0729878
0.0733847
0.0737785
0.0741665
0.0745481
0.0749208
0.0752822
0.0756293
0.0759575
0.0762618
0.0765362
0.0767697
0.0769756
0.0771665
0.0773287
0.0774723
0.0775885
0.0776835
0.0777503
0.0777895
0.0778056
0.0778057
0.0777399
0.0776553
0.0775097
0.0773321
0.0770931
0.0768114
0.0764647
0.0760633
0.0755888
0.0750442
0.0744125
0.0736918
0.072865
0.0719271
0.0708611
0.0696608
0.0683106
0.0668057
0.0651334
0.0632921
0.0612728
0.0590759
0.0567029
0.0541794
0.0514865
0.0486394
0.0456077
0.0423878
0.0389315
0.0352138
0.0312063
0.0269115
0.0224428
0.0180927
0.0144244
0.0114636
0.00928224
0.00710628
0.0618064
0.0623579
0.0626092
0.063083
0.0634122
0.0638666
0.0642382
0.0646796
0.0650774
0.0655118
0.065927
0.0663587
0.0667857
0.0672173
0.0676525
0.0680853
0.068526
0.0689602
0.0694039
0.0698387
0.0702829
0.0707166
0.0711564
0.0715808
0.0720051
0.0724142
0.0728326
0.0732391
0.0736498
0.0740498
0.0744507
0.0748408
0.0752288
0.0756052
0.0759767
0.0763353
0.076686
0.0770221
0.0773486
0.0776576
0.077951
0.0782277
0.0784836
0.0787201
0.0789317
0.07912
0.0792793
0.0794106
0.0795091
0.0795678
0.0795933
0.0795979
0.0795482
0.0794676
0.079335
0.0791625
0.0789335
0.0786546
0.0783117
0.0779076
0.0774302
0.0768846
0.0762575
0.0755557
0.0747628
0.0738874
0.0729135
0.0718506
0.0706852
0.0694269
0.0680652
0.06661
0.0650543
0.0634085
0.0616675
0.0598426
0.0579298
0.0559409
0.0538724
0.0517352
0.0495259
0.0472545
0.0449174
0.0425236
0.0400714
0.0375684
0.0350143
0.0324352
0.0298256
0.0272051
0.0245739
0.0219496
0.0193365
0.0167569
0.0142419
0.0118721
0.00969678
0.00785993
0.00658625
0.00598997
0.0628933
0.0634183
0.0636526
0.0641093
0.064414
0.0648494
0.0651912
0.065607
0.0659686
0.0663684
0.0667396
0.0671264
0.0675001
0.0678753
0.0682463
0.0686099
0.0689737
0.0693246
0.0696771
0.0700129
0.0703499
0.0706685
0.0709864
0.0712854
0.0715807
0.0718588
0.072132
0.0723865
0.0726325
0.0728579
0.0730713
0.0732616
0.0734362
0.0735848
0.0737137
0.0738135
0.0738879
0.0739243
0.073938
0.0739262
0.0738609
0.07377
0.0736279
0.0734501
0.0732202
0.072947
0.0726194
0.0722423
0.0718082
0.0713197
0.070773
0.0701681
0.0695009
0.0687748
0.0679837
0.0671331
0.0662198
0.0652461
0.0642089
0.0631116
0.0619515
0.0607334
0.0594545
0.0581207
0.0567295
0.0552879
0.0537938
0.0522548
0.0506691
0.049045
0.0473809
0.0456852
0.0439574
0.042206
0.0404348
0.0386514
0.0368575
0.0350605
0.0332635
0.0314736
0.0296949
0.0279358
0.0262013
0.0244997
0.0228364
0.0212185
0.0196518
0.0181266
0.0166555
0.0152313
0.013864
0.0125465
0.0112901
0.0100918
0.00897007
0.0079405
0.0070299
0.00639824
0.00612459
0.0061215
0.0593049
0.0596266
0.0597705
0.0600631
0.0602533
0.060527
0.060733
0.0609812
0.0611872
0.0614085
0.0616045
0.0617982
0.061977
0.0621419
0.0622976
0.0624317
0.0625589
0.0626594
0.0627531
0.0628165
0.0628673
0.0628905
0.0628988
0.0628843
0.0628402
0.0627724
0.0626775
0.0625573
0.062413
0.0622384
0.062038
0.0618034
0.0615405
0.0612405
0.0609095
0.0605389
0.0601349
0.0596897
0.0592099
0.058687
0.0581261
0.0575242
0.0568821
0.0561996
0.0554767
0.054714
0.0539119
0.0530713
0.0521932
0.0512784
0.0503287
0.0493447
0.0483288
0.047282
0.0462068
0.0451047
0.043978
0.0428287
0.0416598
0.040477
0.0392804
0.038075
0.0368616
0.0356447
0.0344257
0.033209
0.0319961
0.030791
0.0295959
0.0284145
0.0272489
0.0261027
0.0249778
0.0238772
0.0227996
0.0217481
0.0207245
0.019731
0.0187704
0.0178437
0.016951
0.0160885
0.0152607
0.0144629
0.0136988
0.0129626
0.0122572
0.0115765
0.0109227
0.0102882
0.00967542
0.0090767
0.00849647
0.00793115
0.00739535
0.00689856
0.00653544
0.00637754
0.00635111
0.00656822
0.0500691
0.0500328
0.0500204
0.0500108
0.050001
0.0499774
0.0499511
0.049901
0.0498489
0.0497665
0.0496831
0.0495653
0.0494469
0.0492917
0.0491355
0.0489414
0.0487456
0.0485116
0.0482748
0.0480003
0.047722
0.047408
0.0470868
0.0467284
0.0463589
0.0459552
0.0455375
0.0450876
0.0446222
0.0441258
0.0436129
0.0430702
0.0425108
0.0419231
0.0413192
0.0406887
0.040043
0.0393729
0.0386892
0.0379837
0.0372664
0.036532
0.0357891
0.0350325
0.0342704
0.0334984
0.0327241
0.0319438
0.0311646
0.0303833
0.0296065
0.0288315
0.0280644
0.0273027
0.0265521
0.0258093
0.025078
0.024358
0.0236529
0.0229584
0.0222805
0.0216156
0.0209685
0.0203357
0.019721
0.0191213
0.0185413
0.0179749
0.0174262
0.0168908
0.0163719
0.0158651
0.015373
0.0148916
0.0144225
0.0139622
0.0135119
0.0130679
0.0126305
0.0121958
0.0117808
0.0113744
0.0109854
0.0106037
0.0102374
0.00987694
0.00953002
0.00918833
0.00885978
0.0085379
0.0082321
0.00793878
0.0076701
0.00742664
0.00723068
0.0071007
0.00704745
0.00709163
0.00743201
0.00762404
0.0371641
0.036813
0.0366653
0.0363886
0.0362138
0.035932
0.0357243
0.0354264
0.0351845
0.0348655
0.0345898
0.0342472
0.0339384
0.033571
0.0332302
0.0328373
0.0324655
0.0320471
0.0316453
0.0312014
0.0307707
0.0303016
0.0298463
0.0293625
0.0288919
0.0283982
0.0279176
0.0274137
0.0269211
0.0264098
0.0259111
0.0253978
0.0248989
0.024389
0.023895
0.0233935
0.0229095
0.022421
0.0219515
0.0214802
0.0210293
0.0205778
0.0201467
0.0197173
0.0193086
0.0189035
0.0185194
0.0181403
0.0177822
0.01743
0.0170981
0.0167727
0.0164675
0.0161705
0.0158922
0.0156228
0.0153709
0.0151283
0.0149012
0.0146833
0.0144799
0.0142852
0.0141037
0.0139304
0.0137697
0.0136164
0.0134726
0.0133378
0.0132123
0.013095
0.0129855
0.0128831
0.0127869
0.0126966
0.0126111
0.0125301
0.0124522
0.0123772
0.0123035
0.0122307
0.0121573
0.01208
0.0119986
0.0119093
0.0118119
0.0117024
0.0115803
0.0114421
0.0112884
0.0111177
0.0109338
0.01074
0.0105461
0.0103628
0.0102331
0.0101768
0.0101704
0.0104159
0.0107779
0.0109559
0.0244103
0.0238871
0.0236703
0.0232596
0.0230241
0.0226238
0.0223694
0.0219758
0.0217048
0.0213164
0.0210322
0.020648
0.0203545
0.019975
0.0196756
0.019302
0.019
0.0186338
0.0183325
0.0179755
0.0176779
0.0173323
0.0170431
0.0167144
0.0164382
0.0161283
0.0158671
0.0155772
0.0153331
0.0150647
0.0148395
0.014594
0.0143889
0.0141673
0.013983
0.0137861
0.0136229
0.013451
0.0133093
0.0131624
0.0130422
0.0129197
0.0128214
0.0127227
0.0126463
0.0125711
0.0125166
0.0124645
0.012432
0.0124054
0.0123935
0.0123895
0.0123953
0.012416
0.0124441
0.0124855
0.0125356
0.0125977
0.0126702
0.0127542
0.0128493
0.0129556
0.0130735
0.0132023
0.0133432
0.0134952
0.0136596
0.0138349
0.0140227
0.0142217
0.0144337
0.0146573
0.0148944
0.0151436
0.0154065
0.0156821
0.0159717
0.016274
0.0165902
0.0169187
0.0172602
0.0176125
0.0179755
0.0183462
0.0187233
0.0191025
0.0194809
0.0198524
0.0202126
0.0205552
0.0208764
0.0211722
0.0214436
0.0216946
0.0219408
0.0222295
0.0226756
0.0232856
0.0241112
0.0250127
0.0175958
0.017065
0.0168501
0.0164409
0.0162264
0.0158367
0.0156244
0.0152558
0.0150479
0.0147017
0.0145007
0.0141779
0.0139863
0.0136875
0.0135073
0.013233
0.013066
0.0128166
0.0126644
0.0124398
0.0123036
0.012104
0.0119848
0.0118098
0.0117079
0.011557
0.0114725
0.0113451
0.0112781
0.0111745
0.0111232
0.0110448
0.0110068
0.010954
0.0109291
0.010902
0.0108906
0.0108859
0.0108874
0.0109034
0.0109253
0.0109581
0.0109988
0.0110489
0.0111085
0.0111759
0.0112542
0.0113394
0.0114363
0.0115397
0.0116553
0.0117775
0.0119121
0.0120538
0.0122077
0.0123697
0.0125439
0.0127269
0.0129223
0.0131273
0.0133453
0.0135738
0.0138161
0.0140699
0.0143385
0.0146198
0.014917
0.0152284
0.015557
0.0159014
0.0162648
0.016646
0.0170483
0.0174707
0.0179168
0.018386
0.0188819
0.0194045
0.0199576
0.0205417
0.021161
0.0218168
0.0225138
0.023254
0.0240431
0.0248843
0.0257843
0.0267483
0.0277855
0.0289032
0.0301132
0.0314267
0.0328594
0.0344275
0.0361501
0.0380376
0.0400928
0.0422813
0.0438079
0.0444304
0.0208227
0.0202547
0.0200215
0.019576
0.0193343
0.0189055
0.0186577
0.0182464
0.0179958
0.0176027
0.0173523
0.0169785
0.0167317
0.016379
0.0161392
0.0158084
0.0155786
0.0152705
0.0150534
0.0147686
0.0145661
0.0143051
0.014119
0.013882
0.0137132
0.0135004
0.0133499
0.0131612
0.0130296
0.0128648
0.0127522
0.0126112
0.0125178
0.0124005
0.012326
0.0122322
0.0121766
0.0121063
0.0120697
0.0120251
0.0120039
0.0119885
0.0119833
0.0119832
0.0120028
0.0120239
0.0120633
0.0121053
0.0121645
0.0122274
0.0123067
0.0123904
0.0124902
0.0125952
0.0127158
0.0128424
0.0129841
0.0131325
0.013296
0.0134669
0.0136525
0.0138469
0.0140562
0.0142754
0.01451
0.0147553
0.015017
0.0152904
0.0155811
0.0158849
0.0162072
0.0165441
0.0169008
0.017274
0.0176689
0.0180828
0.0185205
0.01898
0.0194662
0.0199777
0.0205194
0.0210906
0.0216965
0.0223372
0.0230182
0.0237406
0.0245104
0.0253295
0.0262046
0.0271386
0.0281398
0.0292172
0.0303869
0.0316611
0.0330659
0.0346262
0.0363812
0.0383025
0.0398539
0.040536
0.0314851
0.0309375
0.0307062
0.0302653
0.0300039
0.0295681
0.0292768
0.028841
0.0285235
0.0280864
0.0277447
0.0273009
0.0269354
0.0264864
0.0261032
0.0256502
0.0252549
0.0248006
0.0243981
0.0239456
0.0235404
0.023093
0.0226894
0.0222502
0.0218522
0.0214243
0.0210355
0.0206221
0.0202458
0.0198495
0.0194887
0.0191121
0.0187695
0.0184145
0.0180921
0.0177598
0.0174587
0.0171506
0.0168727
0.0165901
0.0163362
0.0160802
0.0158514
0.0156235
0.015421
0.015221
0.015045
0.0148728
0.0147231
0.0145781
0.0144545
0.0143364
0.0142384
0.014147
0.0140747
0.0140089
0.013961
0.0139194
0.0138952
0.0138819
0.0138774
0.0138816
0.0139032
0.0139299
0.0139733
0.0140217
0.0140856
0.0141543
0.0142375
0.0143242
0.0144233
0.0145254
0.014638
0.0147526
0.0148758
0.0149995
0.0151296
0.0152586
0.0153915
0.0155213
0.0156522
0.0157778
0.0159017
0.0160178
0.0161296
0.0162315
0.0163268
0.0164111
0.0164884
0.0165555
0.0166181
0.0166711
0.0167207
0.0167862
0.0168861
0.0170652
0.0173799
0.0179074
0.0186379
0.019683
0.0445054
0.0441731
0.0440329
0.0437651
0.0435952
0.0433177
0.0431101
0.0428115
0.0425651
0.0422398
0.0419548
0.0416004
0.0412775
0.0408924
0.0405319
0.0401158
0.0397186
0.0392716
0.0388389
0.0383617
0.0378954
0.0373891
0.0368914
0.0363581
0.0358315
0.0352737
0.0347214
0.0341421
0.0335681
0.032971
0.0323796
0.031769
0.0311651
0.0305459
0.029935
0.029313
0.0286977
0.0280722
0.0274562
0.0268345
0.0262249
0.0256136
0.0250168
0.0244219
0.0238436
0.0232702
0.0227151
0.0221675
0.0216396
0.0211198
0.0206198
0.0201292
0.0196585
0.0191977
0.0187557
0.0183244
0.0179114
0.0175085
0.0171239
0.0167512
0.0163953
0.0160508
0.0157224
0.015403
0.015098
0.0148005
0.0145158
0.0142353
0.013965
0.0137016
0.0134481
0.0131992
0.0129595
0.0127221
0.0124929
0.012264
0.0120421
0.0118193
0.0116024
0.0113836
0.0111701
0.0109544
0.010744
0.0105322
0.0103262
0.0101204
0.00991938
0.00971993
0.00952764
0.00934106
0.00916693
0.00900638
0.00886778
0.00875273
0.00869599
0.00867742
0.00878699
0.00904658
0.00944938
0.00962787
0.0560308
0.0560311
0.0560437
0.0560572
0.0560663
0.0560683
0.056061
0.0560294
0.0559943
0.0559253
0.0558575
0.0557539
0.0556531
0.0555125
0.0553739
0.0551936
0.0550132
0.0547903
0.0545645
0.0542962
0.054022
0.0537056
0.0533803
0.053015
0.0526365
0.0522181
0.0517855
0.0513133
0.0508254
0.0502986
0.0497546
0.049173
0.0485734
0.0479378
0.0472837
0.0465958
0.0458898
0.045152
0.0443967
0.0436122
0.0428112
0.0419841
0.0411426
0.0402782
0.0394023
0.0385073
0.0376039
0.0366858
0.0357629
0.0348314
0.0338999
0.0329647
0.0320339
0.0311045
0.0301841
0.02927
0.0283695
0.0274802
0.0266083
0.0257509
0.0249119
0.0240859
0.023281
0.0224927
0.0217276
0.0209815
0.02026
0.0195604
0.0188866
0.0182317
0.0176005
0.0169877
0.0163967
0.0158228
0.0152684
0.0147288
0.0142061
0.0136955
0.0131989
0.0127118
0.0122355
0.0117653
0.0113027
0.0108433
0.0103883
0.00995517
0.00953401
0.0091364
0.00875153
0.00839079
0.00804529
0.0077272
0.00742806
0.00716808
0.00692781
0.00677003
0.00670013
0.00669894
0.00703065
0.00721908
0.0625529
0.0628748
0.0630193
0.0633063
0.063499
0.0637665
0.0639755
0.0642189
0.0644292
0.0646486
0.0648515
0.0650476
0.0652363
0.065408
0.0655768
0.0657223
0.0658662
0.0659828
0.066097
0.0661814
0.0662612
0.0663094
0.0663416
0.0663531
0.0663537
0.0663132
0.0662628
0.0661735
0.0660688
0.0659253
0.0657617
0.065558
0.0653295
0.065059
0.0647591
0.064415
0.0640413
0.0636254
0.0631758
0.0626827
0.062152
0.061574
0.0609578
0.0602923
0.0595874
0.0588327
0.0580378
0.057194
0.0563101
0.0553793
0.0544096
0.0533959
0.0523457
0.0512555
0.0501318
0.0489727
0.0477846
0.0465661
0.0453238
0.0440566
0.0427749
0.0414766
0.0401704
0.0388547
0.0375379
0.0362186
0.0349049
0.0335957
0.0322983
0.0310117
0.0297431
0.0284916
0.0272634
0.026058
0.0248807
0.0237305
0.0226092
0.0215122
0.0204455
0.0194062
0.0183983
0.0174204
0.0164748
0.0155611
0.0146802
0.0138308
0.0130067
0.0122109
0.0114382
0.0106924
0.00996893
0.00927164
0.00859845
0.00795765
0.00736203
0.00681327
0.00640047
0.00621243
0.0061738
0.00636038
0.0639505
0.0644342
0.0646513
0.0650701
0.0653546
0.0657525
0.0660718
0.0664519
0.0667897
0.0671562
0.067503
0.0678589
0.0682082
0.068555
0.0689022
0.0692399
0.0695813
0.0699093
0.0702415
0.070558
0.0708779
0.0711805
0.0714847
0.0717722
0.0720574
0.0723239
0.0725873
0.0728307
0.0730696
0.0732892
0.0735017
0.073693
0.0738738
0.0740315
0.0741747
0.074292
0.0743927
0.0744655
0.0745098
0.0745282
0.0745307
0.0744838
0.0744143
0.0742984
0.0741512
0.0739552
0.0737204
0.0734334
0.0731008
0.0727117
0.0722709
0.0717698
0.0712118
0.0705917
0.0699105
0.0691624
0.068354
0.0674755
0.0665361
0.0655255
0.0644541
0.063316
0.0621193
0.0608577
0.0595406
0.0581629
0.0567333
0.0552489
0.0537175
0.0521383
0.0505179
0.0488571
0.0471614
0.0454327
0.0436752
0.0418919
0.0400887
0.0382739
0.0364456
0.0346121
0.0327712
0.0309318
0.0290919
0.0272618
0.02544
0.0236382
0.0218572
0.0201088
0.0183972
0.0167138
0.0150824
0.0135016
0.0119966
0.010573
0.00927681
0.00808156
0.00708245
0.00635322
0.00603081
0.00600372
0.061448
0.0619491
0.0621782
0.0626018
0.0629005
0.0633049
0.063641
0.0640333
0.064392
0.0647781
0.0651514
0.0655353
0.0659183
0.0663021
0.0666918
0.0670768
0.0674707
0.0678572
0.0682537
0.0686414
0.0690386
0.0694265
0.0698226
0.0702087
0.0706002
0.0709806
0.0713625
0.0717297
0.0720914
0.072445
0.0728016
0.0731503
0.0735007
0.073844
0.0741886
0.0745274
0.0748613
0.0751865
0.0755057
0.0758157
0.0761173
0.0764048
0.0766838
0.0769456
0.0771958
0.0774256
0.07764
0.0778312
0.0780024
0.0781472
0.0782671
0.0783562
0.0784062
0.0784266
0.0784281
0.0783674
0.078286
0.0781434
0.0779661
0.0777235
0.0774332
0.077071
0.0766472
0.0761411
0.0755592
0.0748932
0.0741389
0.073294
0.07235
0.0713085
0.0701607
0.0689115
0.0675534
0.0660944
0.0645284
0.0628657
0.0611023
0.0592476
0.0572991
0.0552648
0.0531421
0.0509365
0.0486437
0.0462666
0.043799
0.0412418
0.0385913
0.0358468
0.0330132
0.0301138
0.0271483
0.0241383
0.0211085
0.0181059
0.0152372
0.0125153
0.0101243
0.00808865
0.00662595
0.00592611
0.0563217
0.056755
0.0569539
0.0573118
0.057559
0.0579034
0.0581795
0.0585152
0.0588114
0.0591427
0.0594538
0.0597839
0.0601064
0.0604378
0.0607693
0.0611034
0.061442
0.0617793
0.0621235
0.0624641
0.0628124
0.0631559
0.0635067
0.063852
0.0642038
0.0645498
0.0649013
0.0652475
0.0655994
0.0659501
0.0663074
0.0666639
0.0670265
0.0673883
0.0677545
0.0681186
0.0684891
0.068859
0.069233
0.0696071
0.0699838
0.0703604
0.0707388
0.071116
0.0714938
0.0718689
0.0722434
0.0726152
0.0729843
0.0733462
0.0737006
0.0740418
0.0743669
0.0746703
0.0749417
0.0751649
0.0753887
0.0755758
0.0757521
0.0758919
0.0760139
0.0761016
0.0761719
0.0762108
0.0762275
0.0762186
0.0761415
0.0760361
0.0758636
0.0756472
0.0753605
0.0750163
0.0745857
0.0740801
0.0734699
0.0727596
0.07192
0.0709497
0.0698209
0.0685282
0.0670469
0.0653713
0.0634819
0.0613754
0.0590396
0.0564761
0.0536771
0.0506476
0.0473958
0.0439126
0.0401712
0.0361425
0.0318228
0.0272292
0.022529
0.0182224
0.0144568
0.0116258
0.00943571
0.00727306
0.0498839
0.0501728
0.0503056
0.0505456
0.0506954
0.0509334
0.0510993
0.0513321
0.0515132
0.0517414
0.0519359
0.0521613
0.0523668
0.0525911
0.0528054
0.05303
0.0532511
0.0534766
0.0537026
0.0539294
0.0541589
0.0543869
0.0546186
0.0548477
0.0550811
0.0553117
0.055547
0.0557803
0.0560197
0.0562587
0.0565038
0.0567496
0.0570013
0.0572543
0.0575128
0.0577733
0.0580399
0.0583089
0.0585843
0.0588627
0.0591475
0.0594362
0.0597315
0.0600316
0.0603389
0.0606521
0.0609717
0.0612934
0.0616187
0.0619441
0.0622699
0.0625928
0.0629127
0.0632265
0.0635342
0.0638386
0.064149
0.064452
0.0647576
0.0650486
0.0653294
0.0655787
0.0657902
0.0659984
0.0661724
0.0663438
0.0664823
0.0666117
0.0667049
0.0667699
0.0667976
0.066802
0.0667339
0.0666175
0.0664193
0.066145
0.0657663
0.0652813
0.0646642
0.0639092
0.0629931
0.0619089
0.060637
0.0591722
0.0575025
0.0556245
0.0534957
0.0511104
0.0483024
0.04506
0.0412853
0.0369485
0.0322261
0.0273531
0.0224809
0.0180653
0.0146132
0.0122391
0.0107423
0.00922534
0.0310281
0.0310564
0.0310563
0.031038
0.031014
0.030994
0.0309604
0.0309395
0.0309019
0.0308792
0.0308403
0.0308148
0.0307754
0.0307465
0.0307068
0.0306743
0.0306339
0.0305977
0.0305561
0.0305164
0.030473
0.03043
0.0303847
0.0303386
0.0302913
0.0302426
0.0301935
0.0301427
0.0300921
0.0300396
0.0299874
0.0299331
0.0298789
0.0298228
0.0297666
0.0297085
0.0296503
0.0295903
0.0295301
0.029468
0.0294056
0.0293414
0.0292764
0.0292094
0.0291412
0.0290702
0.0289968
0.0289195
0.0288387
0.028753
0.0286628
0.0285669
0.028466
0.028359
0.0282468
0.0281296
0.0280062
0.0278734
0.0277309
0.027573
0.0273991
0.0272014
0.0269796
0.0267549
0.0265112
0.0262644
0.0260004
0.0257302
0.0254422
0.0251441
0.0248292
0.0244998
0.024145
0.0237739
0.023374
0.0229519
0.022498
0.0220164
0.0215003
0.0209526
0.0203689
0.0197517
0.0190985
0.0184118
0.0176887
0.0169234
0.0160891
0.0151351
0.0140351
0.0127555
0.0111965
0.00928231
0.00708698
0.00496936
0.00301724
0.00232246
0.00260778
0.00527967
0.00862405
0.009848
0.0094721
0.00467548
0.00403041
0.00390135
0.00387304
0.0038971
0.00381775
0.00378066
0.00376595
0.00376301
0.0037854
0.00385671
0.00413365
0.00471653
0.0054735
0.00655141
0.00691983
0.00690151
0.00576446
0.00340354
0.00777602
0.00468054
0.00428947
0.00419014
0.00416624
0.00404595
0.00396681
0.00393215
0.0039203
0.00392274
0.00397611
0.00416364
0.00455764
0.00514152
0.00621956
0.00686823
0.00700421
0.0067593
0.00519361
0.0027836
0.00621318
0.00478478
0.0046051
0.00454125
0.00436894
0.00426773
0.00419999
0.00417288
0.00416486
0.00417781
0.00430534
0.00456676
0.00505113
0.00599165
0.00679626
0.00704943
0.00703849
0.0064785
0.00456347
0.00215184
0.0057952
0.00511618
0.00503439
0.00479458
0.0046372
0.00452195
0.00446459
0.00444045
0.00443823
0.00454005
0.0047656
0.00519752
0.00606539
0.00686894
0.00719443
0.00725445
0.00697772
0.00602658
0.00378364
0.00154615
0.00591791
0.00548177
0.00534366
0.00505443
0.0049399
0.00486754
0.00484966
0.00488372
0.00500282
0.0052865
0.00568657
0.00651114
0.00718423
0.00748872
0.00757509
0.0073954
0.00678107
0.00540417
0.00293415
0.00101738
0.00628494
0.00593549
0.00580201
0.00561788
0.00558595
0.00559525
0.00572222
0.00595465
0.00637529
0.00689919
0.00751962
0.00800079
0.00820597
0.00824913
0.0079623
0.00732564
0.00637057
0.00458563
0.0018949
0.00056376
0.00721782
0.00709214
0.00707672
0.00710622
0.0073816
0.00770537
0.00825421
0.00895521
0.00962881
0.0098291
0.00989381
0.00975092
0.00942372
0.0088387
0.00801837
0.00707695
0.00564043
0.00347427
0.00115051
0.000252369
0.0108626
0.0113026
0.0118075
0.0124668
0.0134256
0.0144113
0.0148912
0.0150414
0.0140101
0.0134138
0.0123215
0.0115321
0.0103091
0.00917608
0.00784292
0.00644498
0.00445427
0.00225078
0.000647344
9.15621e-05
0.0252669
0.0257466
0.0259491
0.0259482
0.0252522
0.0238905
0.0222322
0.0199629
0.0182209
0.0162771
0.0144753
0.0126676
0.0107312
0.00894411
0.00708557
0.00503934
0.00297016
0.00132024
0.000392459
4.02625e-05
0.041174
0.0393927
0.0374213
0.0346279
0.0320881
0.0284986
0.0258739
0.0227027
0.0203193
0.0174384
0.0151837
0.0124516
0.0101227
0.00733555
0.00514781
0.00312701
0.00188433
0.000891332
0.000354923
6.60072e-05
0.0379907
0.0364542
0.0348572
0.0323797
0.0302139
0.026909
0.024493
0.0215879
0.0194257
0.0167701
0.0147799
0.0121879
0.0102351
0.00744418
0.00539796
0.0031099
0.00180863
0.000756415
0.00026452
5.33803e-05
0.0200723
0.0209965
0.0215087
0.0217626
0.0218457
0.021128
0.0199244
0.0180581
0.0167582
0.0149667
0.0137687
0.0119438
0.0106085
0.00879002
0.00721147
0.00517036
0.00295917
0.0011655
0.00028856
3.62944e-05
0.00946889
0.00966721
0.0100741
0.0105403
0.0113319
0.0122465
0.0130353
0.013346
0.0131644
0.0122412
0.0117932
0.0108631
0.0100321
0.0089775
0.00781896
0.00648811
0.00455797
0.00224282
0.000568122
4.71101e-05
0.00684729
0.00666561
0.00661071
0.00658426
0.00675533
0.00699542
0.00742253
0.00801536
0.00879451
0.00916481
0.00934149
0.0094088
0.00914876
0.00870821
0.00794779
0.00707124
0.00567316
0.00352906
0.00107344
0.000128362
0.00610501
0.00576901
0.00563738
0.00543507
0.00538501
0.00537114
0.0054524
0.00562611
0.00598651
0.00644083
0.00713015
0.00772789
0.00801523
0.00809376
0.00792631
0.00731056
0.0063905
0.00465266
0.00191479
0.000436657
0.00578571
0.00538263
0.00525293
0.00496849
0.00485168
0.00476929
0.00474338
0.00475508
0.00485421
0.00509628
0.00547524
0.00624596
0.00702843
0.0073881
0.00749125
0.00738728
0.00679478
0.0054552
0.00300755
0.000936194
0.00568098
0.00502074
0.00494872
0.00474277
0.0045852
0.0044731
0.00440745
0.00437783
0.00436923
0.00445225
0.00466633
0.00506557
0.00588482
0.00677817
0.00715338
0.00722406
0.00698926
0.00607153
0.00385922
0.00151319
0.00618
0.00473058
0.00453194
0.00446437
0.00432368
0.00421852
0.00415383
0.00412721
0.00411931
0.00412831
0.0042426
0.00449654
0.00495654
0.00585758
0.00674284
0.00703798
0.00704406
0.00651489
0.00463981
0.00215811
0.00780321
0.00465327
0.00425659
0.00414831
0.00411566
0.00402144
0.00393509
0.00389758
0.00388545
0.00388781
0.00393731
0.00410918
0.00449868
0.00507887
0.00613647
0.00684593
0.00700238
0.00678696
0.0052579
0.00281731
0.0094729
0.00465244
0.00399478
0.0038685
0.00383888
0.00385277
0.00379668
0.00375396
0.00373907
0.00373599
0.00375885
0.00382635
0.00407836
0.00464022
0.0054198
0.00652185
0.00691886
0.00692008
0.00582761
0.00345002
0.00397117
0.00375019
0.00374679
0.0037468
0.00374652
0.00374628
0.00374612
0.00374604
0.003746
0.00374598
0.00374598
0.003746
0.00374604
0.00374612
0.00374628
0.00374652
0.0037468
0.00374679
0.00375019
0.00397118
0.00441489
0.00375346
0.00374141
0.00374096
0.00374056
0.00374012
0.00373987
0.00373975
0.00373969
0.00373966
0.00373966
0.00373969
0.00373975
0.00373987
0.00374012
0.00374056
0.00374096
0.00374141
0.00375346
0.00441489
0.0048594
0.00376059
0.00373287
0.00373264
0.00373284
0.00373273
0.00373256
0.00373242
0.00373235
0.00373231
0.00373231
0.00373235
0.00373242
0.00373256
0.00373273
0.00373284
0.00373263
0.00373286
0.00376058
0.0048594
0.00530178
0.00377206
0.0037243
0.00372396
0.00372492
0.00372524
0.00372525
0.00372519
0.00372514
0.00372512
0.00372512
0.00372514
0.00372519
0.00372525
0.00372524
0.00372492
0.00372396
0.0037243
0.00377206
0.00530178
0.00573924
0.00378544
0.00371551
0.00371483
0.00371665
0.00371758
0.00371789
0.00371795
0.00371795
0.00371795
0.00371795
0.00371795
0.00371795
0.00371789
0.00371758
0.00371665
0.00371483
0.0037155
0.00378544
0.00573925
0.00617059
0.00379767
0.00370577
0.0037051
0.003708
0.00370969
0.00371043
0.0037107
0.00371078
0.0037108
0.0037108
0.00371078
0.0037107
0.00371043
0.00370969
0.003708
0.0037051
0.00370577
0.00379767
0.00617059
0.00659185
0.00380847
0.00369498
0.00369474
0.00369894
0.00370155
0.00370284
0.0037034
0.00370361
0.00370368
0.00370368
0.00370361
0.0037034
0.00370284
0.00370155
0.00369894
0.00369474
0.00369498
0.00380847
0.00659185
0.00700084
0.00381671
0.00368272
0.00368362
0.00368941
0.00369311
0.00369508
0.00369602
0.00369642
0.00369656
0.00369656
0.00369642
0.00369602
0.00369508
0.00369311
0.00368941
0.00368362
0.00368272
0.00381671
0.00700084
0.00739336
0.00382334
0.00366915
0.00367174
0.00367942
0.00368437
0.00368714
0.00368854
0.00368919
0.00368943
0.00368943
0.00368919
0.00368854
0.00368714
0.00368437
0.00367942
0.00367174
0.00366915
0.00382334
0.00739336
0.00776768
0.00382735
0.00365405
0.00365903
0.00366893
0.00367532
0.00367898
0.00368095
0.0036819
0.00368228
0.00368228
0.0036819
0.00368095
0.00367898
0.00367532
0.00366893
0.00365903
0.00365405
0.00382735
0.00776768
0.00812024
0.00383021
0.00363764
0.00364552
0.00365794
0.00366592
0.00367061
0.00367321
0.00367453
0.00367507
0.00367507
0.00367453
0.00367321
0.00367061
0.00366592
0.00365794
0.00364552
0.00363764
0.00383021
0.00812024
0.00845034
0.00383068
0.00361989
0.00363122
0.00364645
0.0036562
0.00366201
0.00366531
0.00366705
0.00366779
0.00366779
0.00366705
0.00366531
0.00366201
0.0036562
0.00364645
0.00363122
0.00361989
0.00383069
0.00845034
0.00875525
0.00383018
0.0036009
0.00361613
0.00363446
0.00364613
0.00365316
0.00365725
0.00365946
0.00366041
0.00366041
0.00365946
0.00365725
0.00365316
0.00364613
0.00363446
0.00361613
0.0036009
0.00383019
0.00875524
0.00903545
0.00382886
0.00358085
0.00360032
0.00362199
0.00363573
0.00364408
0.00364901
0.00365173
0.00365292
0.00365292
0.00365173
0.00364901
0.00364408
0.00363573
0.00362199
0.00360032
0.00358085
0.00382887
0.00903544
0.00928895
0.00382647
0.00355981
0.0035838
0.00360904
0.003625
0.00363475
0.00364059
0.00364385
0.00364531
0.00364531
0.00364385
0.00364059
0.00363475
0.003625
0.00360904
0.0035838
0.00355981
0.00382647
0.00928894
0.00951739
0.00382339
0.00353793
0.00356664
0.00359565
0.00361394
0.00362518
0.00363197
0.00363582
0.00363755
0.00363755
0.00363582
0.00363197
0.00362518
0.00361394
0.00359565
0.00356664
0.00353794
0.0038234
0.00951738
0.00971929
0.00382011
0.00351531
0.00354885
0.00358181
0.00360255
0.00361535
0.00362316
0.00362762
0.00362964
0.00362964
0.00362762
0.00362316
0.00361535
0.00360255
0.00358181
0.00354885
0.00351531
0.00382011
0.00971928
0.00989731
0.00381663
0.00349216
0.00353055
0.00356758
0.00359087
0.00360529
0.00361414
0.00361924
0.00362157
0.00362157
0.00361924
0.00361414
0.00360529
0.00359087
0.00356757
0.00353055
0.00349216
0.00381663
0.0098973
0.0100502
0.00381347
0.00346849
0.0035117
0.00355293
0.00357887
0.00359499
0.00360492
0.00361068
0.00361332
0.00361332
0.00361068
0.00360492
0.00359499
0.00357888
0.00355293
0.0035117
0.0034685
0.00381347
0.0100502
0.0101815
0.00381057
0.00344463
0.00349248
0.00353795
0.0035666
0.00358445
0.0035955
0.00360193
0.0036049
0.0036049
0.00360193
0.0035955
0.00358445
0.0035666
0.00353795
0.00349247
0.00344462
0.00381057
0.0101815
0.0102898
0.00380853
0.00342045
0.00347279
0.0035226
0.00355404
0.00357367
0.00358587
0.003593
0.0035963
0.0035963
0.003593
0.00358587
0.00357367
0.00355404
0.0035226
0.0034728
0.00342047
0.00380853
0.0102897
0.0103794
0.00380714
0.00339644
0.00345288
0.00350698
0.00354123
0.00356267
0.00357603
0.00358387
0.00358751
0.00358751
0.00358387
0.00357603
0.00356267
0.00354123
0.00350698
0.00345287
0.00339643
0.00380714
0.0103794
0.0104486
0.00380736
0.00337228
0.00343259
0.00349103
0.00352816
0.00355145
0.003566
0.00357455
0.00357853
0.00357853
0.00357455
0.003566
0.00355145
0.00352816
0.00349103
0.00343259
0.0033723