/*--------------------------------*- C++ -*----------------------------------*\
| =========                 |                                                 |
| \\      /  F ield         | OpenFOAM: The Open Source CFD Toolbox           |
|  \\    /   O peration     | Version:  2.1.0                                 |
|   \\  /    A nd           | Web:      www.OpenFOAM.org                      |
|    \\/     M anipulation  |                                                 |
\*---------------------------------------------------------------------------*/
FoamFile
{
    version     2.0;
    format      ascii;
    class       volScalarField;
    location    "0.41";
    object      nut;
}
// * * * * * * * * * * * * * * * * * * * * * * * * * * * * * * * * * * * * * //

dimensions      [0 2 -1 0 0 0 0];

internalField   nonuniform List<scalar> 
6400
(
7.08642e-06
7.10497e-06
7.11703e-06
7.13268e-06
7.14664e-06
7.16462e-06
7.17929e-06
7.19828e-06
7.21365e-06
7.23345e-06
7.24961e-06
7.26984e-06
7.28696e-06
7.30748e-06
7.32562e-06
7.34642e-06
7.36559e-06
7.38673e-06
7.40694e-06
7.42856e-06
7.44983e-06
7.47211e-06
7.49451e-06
7.51764e-06
7.54124e-06
7.5654e-06
7.59025e-06
7.61556e-06
7.64171e-06
7.66828e-06
7.69579e-06
7.72373e-06
7.75267e-06
7.78208e-06
7.81252e-06
7.8435e-06
7.87553e-06
7.90817e-06
7.94186e-06
7.97613e-06
8.01131e-06
8.04703e-06
8.08353e-06
8.12047e-06
8.15802e-06
8.19588e-06
8.23413e-06
8.27253e-06
8.31111e-06
8.34969e-06
8.38824e-06
8.42658e-06
8.46446e-06
8.50101e-06
8.53576e-06
8.56786e-06
8.599e-06
8.63049e-06
8.66122e-06
8.69207e-06
8.7225e-06
8.75336e-06
8.78404e-06
8.81522e-06
8.84587e-06
8.87709e-06
8.90768e-06
8.93864e-06
8.96806e-06
8.99657e-06
9.02396e-06
9.04953e-06
9.07364e-06
9.09574e-06
9.11629e-06
9.13542e-06
9.15389e-06
9.17282e-06
9.19371e-06
9.21893e-06
9.25083e-06
9.29215e-06
9.3432e-06
9.39748e-06
9.44605e-06
9.51027e-06
9.57778e-06
9.64072e-06
9.67616e-06
9.63897e-06
9.44224e-06
8.91721e-06
7.8245e-06
5.97076e-06
3.46077e-06
2.31906e-06
2.40653e-06
3.78133e-06
3.87697e-06
4.18285e-06
7.53546e-05
7.58174e-05
7.5907e-05
7.6209e-05
7.63107e-05
7.65632e-05
7.66855e-05
7.69049e-05
7.70442e-05
7.72403e-05
7.73908e-05
7.75695e-05
7.77254e-05
7.78905e-05
7.80467e-05
7.82003e-05
7.83527e-05
7.84956e-05
7.86412e-05
7.87736e-05
7.89101e-05
7.90321e-05
7.91586e-05
7.92711e-05
7.93879e-05
7.94924e-05
7.96003e-05
7.96963e-05
7.97943e-05
7.98809e-05
7.99677e-05
8.00436e-05
8.01175e-05
8.01807e-05
8.02398e-05
8.02877e-05
8.03292e-05
8.03586e-05
8.03829e-05
8.03967e-05
8.0402e-05
8.03933e-05
8.03728e-05
8.03359e-05
8.02829e-05
8.021e-05
8.0116e-05
7.99972e-05
7.98516e-05
7.96762e-05
7.94685e-05
7.92275e-05
7.89594e-05
7.86588e-05
7.83185e-05
7.78299e-05
7.71338e-05
7.64029e-05
7.56252e-05
7.48077e-05
7.39422e-05
7.30421e-05
7.20948e-05
7.11163e-05
7.00873e-05
6.90212e-05
6.79044e-05
6.67512e-05
6.55459e-05
6.42804e-05
6.29601e-05
6.15762e-05
6.01279e-05
5.86111e-05
5.70232e-05
5.53635e-05
5.36299e-05
5.18249e-05
4.9949e-05
4.80078e-05
4.60051e-05
4.39509e-05
4.18545e-05
3.97207e-05
3.75296e-05
3.52511e-05
3.28885e-05
3.04221e-05
2.78449e-05
2.51526e-05
2.2363e-05
1.95129e-05
1.66833e-05
1.40169e-05
1.15046e-05
9.23505e-06
7.49542e-06
6.29037e-06
5.67897e-06
6.86491e-06
0.000115208
0.000115474
0.00011558
0.000115697
0.000115788
0.000115865
0.000115947
0.000115994
0.000116064
0.000116087
0.000116141
0.000116141
0.000116174
0.000116151
0.000116159
0.000116111
0.000116089
0.000116014
0.000115959
0.000115855
0.000115763
0.000115624
0.000115492
0.000115318
0.000115147
0.000114941
0.000114737
0.000114501
0.000114264
0.000113996
0.000113723
0.000113422
0.00011311
0.000112773
0.000112422
0.000112045
0.000111653
0.000111236
0.00011079
0.000110316
0.000109819
0.000109291
0.000108734
0.000108143
0.000107519
0.000106856
0.000106153
0.000105405
0.000104608
0.000103755
0.000102841
0.000101635
0.000100134
9.85987e-05
9.70168e-05
9.54076e-05
9.37628e-05
9.20891e-05
9.03812e-05
8.8643e-05
8.68825e-05
8.51096e-05
8.32724e-05
8.1426e-05
7.95291e-05
7.76161e-05
7.56612e-05
7.36874e-05
7.16779e-05
6.96474e-05
6.75836e-05
6.5495e-05
6.33727e-05
6.12214e-05
5.9034e-05
5.68138e-05
5.45555e-05
5.22632e-05
4.9934e-05
4.75741e-05
4.51844e-05
4.27744e-05
4.0349e-05
3.79204e-05
3.55022e-05
3.31223e-05
3.07831e-05
2.85071e-05
2.62926e-05
2.41516e-05
2.20551e-05
2.00241e-05
1.80306e-05
1.59891e-05
1.39448e-05
1.1936e-05
1.01365e-05
8.62438e-06
8.12499e-06
1.13144e-05
0.000137082
0.000136804
0.000136698
0.000136431
0.000136325
0.000136031
0.000135899
0.000135585
0.000135418
0.000135086
0.000134878
0.000134525
0.000134274
0.000133899
0.000133604
0.000133202
0.000132861
0.000132428
0.000132039
0.00013157
0.00013113
0.000130619
0.000130121
0.000129554
0.000128877
0.000127857
0.000126826
0.000125753
0.000124669
0.000123549
0.000122415
0.000121247
0.000120061
0.000118843
0.000117604
0.000116334
0.000115041
0.000113716
0.000112369
0.00011099
0.000109582
0.000108148
0.000106683
0.000105191
0.000103667
0.000102117
0.000100536
9.89276e-05
9.72899e-05
9.56183e-05
9.39237e-05
9.22268e-05
9.04914e-05
8.87458e-05
8.69717e-05
8.51872e-05
8.33776e-05
8.15516e-05
7.9698e-05
7.78236e-05
7.59214e-05
7.40009e-05
7.20548e-05
7.00942e-05
6.81095e-05
6.61137e-05
6.40983e-05
6.20768e-05
6.00432e-05
5.80107e-05
5.59756e-05
5.39507e-05
5.19348e-05
4.99395e-05
4.79648e-05
4.6021e-05
4.41078e-05
4.22338e-05
4.03973e-05
3.86035e-05
3.68484e-05
3.51339e-05
3.34484e-05
3.17926e-05
3.01741e-05
2.85606e-05
2.69585e-05
2.53598e-05
2.37578e-05
2.21454e-05
2.0518e-05
1.8872e-05
1.71971e-05
1.54723e-05
1.3706e-05
1.19812e-05
1.05103e-05
9.77539e-06
1.19117e-05
1.2061e-05
0.000139261
0.000139355
0.000139103
0.000138956
0.000138203
0.000137614
0.000136716
0.000135935
0.000134988
0.000134103
0.000133126
0.000132171
0.000131165
0.000130154
0.000129115
0.000128053
0.000126976
0.000125866
0.000124746
0.000123587
0.000122421
0.000121216
0.000120001
0.000118749
0.000117485
0.000116198
0.000114897
0.000113567
0.000112225
0.000110857
0.000109476
0.00010807
0.000106651
0.000105208
0.000103751
0.00010227
0.000100775
9.92493e-05
9.77187e-05
9.61814e-05
9.46046e-05
9.30277e-05
9.1422e-05
8.98107e-05
8.81774e-05
8.65365e-05
8.4879e-05
8.32144e-05
8.15381e-05
7.98574e-05
7.81706e-05
7.64817e-05
7.47879e-05
7.30919e-05
7.13895e-05
6.9688e-05
6.79873e-05
6.62916e-05
6.46005e-05
6.29189e-05
6.12463e-05
5.95878e-05
5.79428e-05
5.63164e-05
5.47073e-05
5.31205e-05
5.15539e-05
5.00119e-05
4.84915e-05
4.69962e-05
4.55177e-05
4.40643e-05
4.264e-05
4.12214e-05
3.98301e-05
3.84457e-05
3.70786e-05
3.57137e-05
3.43572e-05
3.29959e-05
3.16334e-05
3.02618e-05
2.88828e-05
2.74962e-05
2.61041e-05
2.47063e-05
2.33155e-05
2.19248e-05
2.05534e-05
1.92003e-05
1.78828e-05
1.66007e-05
1.53747e-05
1.41891e-05
1.31002e-05
1.22692e-05
1.20809e-05
1.37497e-05
1.37872e-05
1.41349e-05
0.000126195
0.000125572
0.000125172
0.000124643
0.000123735
0.000122846
0.000121775
0.000120732
0.000119601
0.000118481
0.000117321
0.000116154
0.000114972
0.000113771
0.00011257
0.000111341
0.00011012
0.000108869
0.000107629
0.000106359
0.000105096
0.000103812
0.000102531
0.000101243
9.99374e-05
9.86251e-05
9.72991e-05
9.59618e-05
9.46188e-05
9.32608e-05
9.18987e-05
9.0521e-05
8.91402e-05
8.77447e-05
8.63472e-05
8.49369e-05
8.35259e-05
8.2105e-05
8.06862e-05
7.92588e-05
7.78343e-05
7.6408e-05
7.49842e-05
7.35631e-05
7.21465e-05
7.07357e-05
6.93319e-05
6.79364e-05
6.65501e-05
6.5174e-05
6.38083e-05
6.24529e-05
6.11089e-05
5.97764e-05
5.84557e-05
5.71474e-05
5.58512e-05
5.45723e-05
5.33085e-05
5.20548e-05
5.0818e-05
4.95903e-05
4.83758e-05
4.71692e-05
4.5973e-05
4.47836e-05
4.3602e-05
4.24262e-05
4.12565e-05
4.00918e-05
3.89327e-05
3.77808e-05
3.66365e-05
3.54994e-05
3.43706e-05
3.3248e-05
3.21371e-05
3.10348e-05
2.99519e-05
2.88806e-05
2.78295e-05
2.67945e-05
2.57825e-05
2.47901e-05
2.38234e-05
2.28786e-05
2.19557e-05
2.10568e-05
2.01951e-05
1.93697e-05
1.85981e-05
1.78866e-05
1.72645e-05
1.67657e-05
1.65213e-05
1.66365e-05
1.60617e-05
1.5818e-05
1.5793e-05
1.32094e-05
0.00011074
0.000109572
0.000109034
0.000108179
0.000107259
0.000106187
0.000105123
0.000103969
0.000102848
0.000101663
0.00010052
9.93229e-05
9.81697e-05
9.69685e-05
9.58099e-05
9.46085e-05
9.3448e-05
9.22499e-05
9.10907e-05
8.9899e-05
8.87466e-05
8.75664e-05
8.64157e-05
8.52431e-05
8.40985e-05
8.29358e-05
8.17971e-05
8.06467e-05
7.95176e-05
7.83792e-05
7.72597e-05
7.6133e-05
7.50236e-05
7.39088e-05
7.28097e-05
7.17065e-05
7.06177e-05
6.95259e-05
6.84469e-05
6.73613e-05
6.62916e-05
6.52272e-05
6.41646e-05
6.31104e-05
6.20597e-05
6.10159e-05
5.99761e-05
5.89422e-05
5.7913e-05
5.68896e-05
5.58707e-05
5.4858e-05
5.3851e-05
5.28516e-05
5.18619e-05
5.08791e-05
4.99004e-05
4.89312e-05
4.79694e-05
4.70165e-05
4.60762e-05
4.51464e-05
4.42317e-05
4.33294e-05
4.24437e-05
4.15722e-05
4.07268e-05
3.98973e-05
3.90949e-05
3.8311e-05
3.75559e-05
3.68195e-05
3.61089e-05
3.54171e-05
3.47502e-05
3.41005e-05
3.34726e-05
3.28568e-05
3.22611e-05
3.12927e-05
3.03414e-05
2.93938e-05
2.84676e-05
2.75463e-05
2.66473e-05
2.57549e-05
2.48867e-05
2.40278e-05
2.3198e-05
2.23851e-05
2.16112e-05
2.08683e-05
2.01782e-05
1.95437e-05
1.90029e-05
1.8599e-05
1.83383e-05
1.82353e-05
1.89305e-05
1.49388e-05
0.00010001
9.82589e-05
9.77063e-05
9.66318e-05
9.57897e-05
9.46278e-05
9.36798e-05
9.2516e-05
9.15366e-05
9.04022e-05
8.94251e-05
8.83277e-05
8.73629e-05
8.63017e-05
8.53517e-05
8.43226e-05
8.33866e-05
8.23839e-05
8.14593e-05
8.04768e-05
7.95594e-05
7.8451e-05
7.72224e-05
7.59429e-05
7.47196e-05
7.34688e-05
7.22867e-05
7.10722e-05
6.99305e-05
6.87612e-05
6.76674e-05
6.6551e-05
6.55114e-05
6.4454e-05
6.34721e-05
6.24761e-05
6.15551e-05
6.06238e-05
5.9766e-05
5.89012e-05
5.81063e-05
5.73048e-05
5.65693e-05
5.58263e-05
5.51468e-05
5.44593e-05
5.38312e-05
5.31948e-05
5.26129e-05
5.20221e-05
5.14794e-05
5.093e-05
5.04173e-05
4.98971e-05
4.94074e-05
4.89116e-05
4.84381e-05
4.79571e-05
4.74892e-05
4.70108e-05
4.65399e-05
4.60562e-05
4.55751e-05
4.50699e-05
4.45722e-05
4.40778e-05
4.35529e-05
4.30452e-05
4.25168e-05
4.20015e-05
4.14684e-05
4.09457e-05
4.04078e-05
3.98776e-05
3.93342e-05
3.87963e-05
3.82466e-05
3.76999e-05
3.71434e-05
3.65851e-05
3.6015e-05
3.54337e-05
3.48367e-05
3.42229e-05
3.35885e-05
3.29308e-05
3.22471e-05
3.15344e-05
3.07936e-05
3.00253e-05
2.92375e-05
2.84396e-05
2.76528e-05
2.69013e-05
2.62794e-05
2.58176e-05
2.54397e-05
2.56065e-05
2.61395e-05
2.05171e-05
8.30369e-05
8.09687e-05
8.01298e-05
7.85696e-05
7.76977e-05
7.62459e-05
7.53473e-05
7.39963e-05
7.30816e-05
7.17993e-05
7.0914e-05
6.96893e-05
6.88332e-05
6.76696e-05
6.68462e-05
6.57465e-05
6.49601e-05
6.39265e-05
6.31814e-05
6.2216e-05
6.15168e-05
6.06218e-05
5.99751e-05
5.91604e-05
5.85711e-05
5.78377e-05
5.73086e-05
5.66527e-05
5.61843e-05
5.56024e-05
5.51926e-05
5.46806e-05
5.43249e-05
5.38785e-05
5.35726e-05
5.31889e-05
5.29269e-05
5.25997e-05
5.23752e-05
5.20983e-05
5.19051e-05
5.16691e-05
5.15023e-05
5.12992e-05
5.11537e-05
5.09761e-05
5.08455e-05
5.06782e-05
5.05623e-05
5.04403e-05
5.03122e-05
5.01898e-05
5.00582e-05
4.99595e-05
4.98453e-05
4.97541e-05
4.96551e-05
4.95725e-05
4.94907e-05
4.94216e-05
4.93573e-05
4.93034e-05
4.92569e-05
4.92184e-05
4.91895e-05
4.91665e-05
4.91561e-05
4.91519e-05
4.9158e-05
4.91712e-05
4.91939e-05
4.92237e-05
4.92619e-05
4.93071e-05
4.93597e-05
4.94182e-05
4.94822e-05
4.95502e-05
4.96209e-05
4.96929e-05
4.97632e-05
4.98289e-05
4.98863e-05
4.99306e-05
4.99567e-05
4.99574e-05
4.99264e-05
4.98539e-05
4.97326e-05
4.95546e-05
4.93155e-05
4.9013e-05
4.86526e-05
4.82452e-05
4.78201e-05
4.74578e-05
4.73264e-05
4.74477e-05
4.79887e-05
3.978e-05
7.41103e-05
7.22528e-05
7.15091e-05
7.01133e-05
6.94129e-05
6.80978e-05
6.74367e-05
6.62091e-05
6.5586e-05
6.44498e-05
6.38677e-05
6.2821e-05
6.22834e-05
6.13249e-05
6.08335e-05
5.99613e-05
5.95174e-05
5.87289e-05
5.83328e-05
5.76247e-05
5.7276e-05
5.66446e-05
5.63419e-05
5.57828e-05
5.55231e-05
5.5031e-05
5.48108e-05
5.43802e-05
5.41958e-05
5.38259e-05
5.36651e-05
5.33562e-05
5.32051e-05
5.29618e-05
5.28316e-05
5.26446e-05
5.25177e-05
5.23804e-05
5.22539e-05
5.21568e-05
5.20645e-05
5.19878e-05
5.1924e-05
5.187e-05
5.18345e-05
5.18022e-05
5.17931e-05
5.17833e-05
5.17999e-05
5.18131e-05
5.18521e-05
5.18893e-05
5.19527e-05
5.20175e-05
5.21057e-05
5.2198e-05
5.23121e-05
5.24322e-05
5.25725e-05
5.27198e-05
5.28871e-05
5.30622e-05
5.32577e-05
5.34623e-05
5.36874e-05
5.39223e-05
5.41781e-05
5.44443e-05
5.47318e-05
5.50306e-05
5.53513e-05
5.56844e-05
5.60402e-05
5.64101e-05
5.68036e-05
5.72132e-05
5.76477e-05
5.81007e-05
5.85802e-05
5.9081e-05
5.96106e-05
6.0165e-05
6.07513e-05
6.13669e-05
6.20185e-05
6.27049e-05
6.34332e-05
6.42041e-05
6.50264e-05
6.59018e-05
6.68403e-05
6.78458e-05
6.89289e-05
7.00952e-05
7.13528e-05
7.2694e-05
7.41082e-05
7.55705e-05
7.62944e-05
6.62049e-05
7.94854e-05
7.74793e-05
7.66773e-05
7.5154e-05
7.43767e-05
7.29412e-05
7.21898e-05
7.08467e-05
7.01253e-05
6.88779e-05
6.81903e-05
6.70409e-05
6.63905e-05
6.53401e-05
6.47343e-05
6.37769e-05
6.32211e-05
6.23527e-05
6.18497e-05
6.10663e-05
6.06166e-05
5.9914e-05
5.95165e-05
5.889e-05
5.85424e-05
5.79865e-05
5.76855e-05
5.7195e-05
5.69363e-05
5.6505e-05
5.62838e-05
5.59062e-05
5.57169e-05
5.53882e-05
5.52245e-05
5.49392e-05
5.47957e-05
5.45445e-05
5.44104e-05
5.42174e-05
5.40822e-05
5.39376e-05
5.38062e-05
5.36618e-05
5.35725e-05
5.34542e-05
5.33845e-05
5.3291e-05
5.32413e-05
5.31723e-05
5.31433e-05
5.3099e-05
5.30914e-05
5.3073e-05
5.30869e-05
5.30931e-05
5.31325e-05
5.31655e-05
5.32308e-05
5.32906e-05
5.33803e-05
5.34682e-05
5.35844e-05
5.37005e-05
5.38446e-05
5.39898e-05
5.41622e-05
5.43371e-05
5.45385e-05
5.47436e-05
5.49743e-05
5.521e-05
5.54709e-05
5.57384e-05
5.60302e-05
5.63306e-05
5.66558e-05
5.6992e-05
5.73536e-05
5.77289e-05
5.8131e-05
5.855e-05
5.89976e-05
5.9466e-05
5.99658e-05
6.0491e-05
6.10513e-05
6.16421e-05
6.22718e-05
6.29372e-05
6.3647e-05
6.44064e-05
6.52323e-05
6.61303e-05
6.71251e-05
6.82335e-05
6.95013e-05
7.08997e-05
7.19392e-05
6.30744e-05
9.80017e-05
9.57937e-05
9.4885e-05
9.31785e-05
9.22078e-05
9.05911e-05
8.95671e-05
8.80292e-05
8.69651e-05
8.55032e-05
8.44076e-05
8.3024e-05
8.19072e-05
8.05713e-05
7.94874e-05
7.81965e-05
7.71446e-05
7.59059e-05
7.4891e-05
7.37099e-05
7.27375e-05
7.16182e-05
7.06932e-05
6.96389e-05
6.87655e-05
6.77786e-05
6.69579e-05
6.60411e-05
6.52782e-05
6.44301e-05
6.37264e-05
6.29468e-05
6.23024e-05
6.15903e-05
6.10033e-05
6.03547e-05
5.98219e-05
5.92338e-05
5.8752e-05
5.82203e-05
5.77841e-05
5.73042e-05
5.69029e-05
5.64662e-05
5.60966e-05
5.56957e-05
5.53522e-05
5.49796e-05
5.46556e-05
5.43043e-05
5.39938e-05
5.36579e-05
5.3344e-05
5.30214e-05
5.27413e-05
5.24133e-05
5.21407e-05
5.1828e-05
5.15631e-05
5.12813e-05
5.1012e-05
5.07237e-05
5.04778e-05
5.02045e-05
4.99686e-05
4.97096e-05
4.94827e-05
4.92389e-05
4.90234e-05
4.87899e-05
4.85777e-05
4.83481e-05
4.81352e-05
4.79027e-05
4.76811e-05
4.74376e-05
4.71991e-05
4.69362e-05
4.66722e-05
4.63811e-05
4.60856e-05
4.5762e-05
4.54291e-05
4.50667e-05
4.46912e-05
4.4286e-05
4.38659e-05
4.34185e-05
4.29589e-05
4.24779e-05
4.19929e-05
4.14901e-05
4.09859e-05
4.0509e-05
4.00917e-05
3.97975e-05
3.97225e-05
3.99884e-05
4.06317e-05
3.43457e-05
0.000105646
0.000104097
0.000103443
0.000102323
0.000101414
0.000100195
9.91716e-05
9.79371e-05
9.68729e-05
9.56565e-05
9.45835e-05
9.33967e-05
9.23292e-05
9.11715e-05
9.01163e-05
8.89864e-05
8.79448e-05
8.68416e-05
8.58142e-05
8.47362e-05
8.37239e-05
8.26695e-05
8.16725e-05
8.06398e-05
7.96567e-05
7.8639e-05
7.76743e-05
7.66819e-05
7.57257e-05
7.4751e-05
7.38101e-05
7.28541e-05
7.19289e-05
7.09916e-05
7.00832e-05
6.91667e-05
6.82672e-05
6.73523e-05
6.64548e-05
6.55474e-05
6.46573e-05
6.37629e-05
6.28869e-05
6.20107e-05
6.11552e-05
6.0303e-05
5.94757e-05
5.86543e-05
5.78613e-05
5.70751e-05
5.63185e-05
5.55719e-05
5.48551e-05
5.41493e-05
5.34723e-05
5.28096e-05
5.21805e-05
5.15056e-05
5.07649e-05
5.00164e-05
4.92818e-05
4.85375e-05
4.78028e-05
4.70504e-05
4.63036e-05
4.55364e-05
4.47739e-05
4.39857e-05
4.31888e-05
4.23887e-05
4.16033e-05
4.07812e-05
3.99852e-05
3.91577e-05
3.83553e-05
3.75262e-05
3.67208e-05
3.58942e-05
3.50906e-05
3.42713e-05
3.3469e-05
3.26537e-05
3.18575e-05
3.10541e-05
3.02732e-05
2.94914e-05
2.87295e-05
2.79721e-05
2.72408e-05
2.65251e-05
2.58469e-05
2.52021e-05
2.46143e-05
2.40819e-05
2.37009e-05
2.33895e-05
2.33619e-05
2.36365e-05
2.43794e-05
1.89159e-05
0.000119673
0.00011852
0.000117985
0.000117088
0.000116109
0.00011498
0.00011384
0.000112603
0.000111394
0.000110109
0.000108867
0.000107567
0.000106313
0.000105004
0.00010374
0.000102424
0.000101148
9.98267e-05
9.85412e-05
9.72146e-05
9.59204e-05
9.45903e-05
9.32896e-05
9.196e-05
9.06538e-05
8.93236e-05
8.80165e-05
8.66882e-05
8.53803e-05
8.40551e-05
8.275e-05
8.14315e-05
8.01315e-05
7.88217e-05
7.75299e-05
7.62323e-05
7.49544e-05
7.36748e-05
7.24137e-05
7.11528e-05
6.99084e-05
6.86651e-05
6.74351e-05
6.621e-05
6.50037e-05
6.37917e-05
6.25997e-05
6.14046e-05
6.02266e-05
5.90491e-05
5.78872e-05
5.67275e-05
5.5582e-05
5.444e-05
5.3312e-05
5.21888e-05
5.10812e-05
4.99819e-05
4.89e-05
4.78288e-05
4.6773e-05
4.57213e-05
4.46866e-05
4.36614e-05
4.2655e-05
4.16616e-05
4.06887e-05
3.97389e-05
3.88139e-05
3.79117e-05
3.70365e-05
3.61868e-05
3.53656e-05
3.45715e-05
3.38002e-05
3.30557e-05
3.23335e-05
3.16371e-05
3.09611e-05
3.03079e-05
2.96675e-05
2.90479e-05
2.84384e-05
2.78461e-05
2.68367e-05
2.58604e-05
2.49055e-05
2.39966e-05
2.31138e-05
2.22815e-05
2.14824e-05
2.07423e-05
2.0042e-05
1.94166e-05
1.88188e-05
1.84095e-05
1.81788e-05
1.7992e-05
1.87257e-05
1.44605e-05
0.000136167
0.000135526
0.000135108
0.00013452
0.000133539
0.000132551
0.000131385
0.000130229
0.000128994
0.000127755
0.000126487
0.000125199
0.000123905
0.000122581
0.000121262
0.000119906
0.000118561
0.000117177
0.000115806
0.000114398
0.000113001
0.00011157
0.000110136
0.000108692
0.000107257
0.000105785
0.00010433
0.000102847
0.000101377
9.98849e-05
9.83972e-05
9.68855e-05
9.53754e-05
9.38439e-05
9.23127e-05
9.07633e-05
8.92194e-05
8.76658e-05
8.61169e-05
8.45615e-05
8.30095e-05
8.14514e-05
7.98998e-05
7.83437e-05
7.67966e-05
7.52476e-05
7.37099e-05
7.21739e-05
7.06514e-05
6.91346e-05
6.76331e-05
6.61408e-05
6.46657e-05
6.32023e-05
6.17562e-05
6.03231e-05
5.89084e-05
5.75056e-05
5.61196e-05
5.47527e-05
5.34e-05
5.20685e-05
5.07548e-05
4.9459e-05
4.8179e-05
4.6913e-05
4.56601e-05
4.44178e-05
4.31857e-05
4.19615e-05
4.07457e-05
3.95358e-05
3.83328e-05
3.71358e-05
3.59508e-05
3.47727e-05
3.36039e-05
3.24422e-05
3.12893e-05
3.01478e-05
2.90168e-05
2.79032e-05
2.68032e-05
2.57255e-05
2.46627e-05
2.36225e-05
2.25996e-05
2.16017e-05
2.06213e-05
1.96678e-05
1.87516e-05
1.78753e-05
1.70544e-05
1.639e-05
1.59583e-05
1.6128e-05
1.60766e-05
1.58676e-05
1.5884e-05
1.31651e-05
0.000147871
0.000147991
0.000147713
0.000147504
0.000146686
0.000145996
0.000145014
0.000144125
0.000143087
0.000142095
0.000141027
0.000139967
0.000138869
0.000137757
0.000136627
0.000135469
0.000134302
0.000133101
0.000131896
0.000130653
0.000129407
0.000128123
0.000126834
0.00012551
0.000124178
0.00012281
0.000121436
0.000120026
0.000118615
0.000117177
0.000115729
0.000114254
0.00011277
0.000111262
0.000109744
0.000108201
0.000106649
0.000105075
0.000103481
0.000101873
0.000100268
9.86214e-05
9.69745e-05
9.52982e-05
9.36163e-05
9.19097e-05
9.01951e-05
8.84595e-05
8.67156e-05
8.49543e-05
8.31859e-05
8.14046e-05
7.96191e-05
7.78275e-05
7.60339e-05
7.42379e-05
7.24444e-05
7.06453e-05
6.88509e-05
6.70543e-05
6.52675e-05
6.3488e-05
6.17244e-05
5.99733e-05
5.82435e-05
5.65312e-05
5.4844e-05
5.31791e-05
5.1542e-05
4.99305e-05
4.83481e-05
4.67927e-05
4.52651e-05
4.37574e-05
4.22777e-05
4.08303e-05
3.93852e-05
3.79735e-05
3.65612e-05
3.51679e-05
3.37675e-05
3.23723e-05
3.0962e-05
2.95457e-05
2.81066e-05
2.66549e-05
2.51845e-05
2.36989e-05
2.22075e-05
2.07055e-05
1.92111e-05
1.77191e-05
1.62277e-05
1.48005e-05
1.34825e-05
1.24378e-05
1.20866e-05
1.36408e-05
1.38508e-05
1.43372e-05
0.000141581
0.000141255
0.000141125
0.000140799
0.000140657
0.000140306
0.000140134
0.000139767
0.000139558
0.00013918
0.00013893
0.000138535
0.000138244
0.000137829
0.000137495
0.000137056
0.000136678
0.000136212
0.000135789
0.00013529
0.00013482
0.000134285
0.000133766
0.000133189
0.000132615
0.000131987
0.000131352
0.000130661
0.000129709
0.000128551
0.000127378
0.000126173
0.000124956
0.000123712
0.000122457
0.000121178
0.000119877
0.00011855
0.0001172
0.000115825
0.000114426
0.000112995
0.000111544
0.000110058
0.000108551
0.000107009
0.000105443
0.000103844
0.000102219
0.000100562
9.88781e-05
9.7163e-05
9.54107e-05
9.36365e-05
9.18551e-05
9.00259e-05
8.81947e-05
8.63217e-05
8.44421e-05
8.25286e-05
8.06056e-05
7.8653e-05
7.66876e-05
7.46907e-05
7.26733e-05
7.0632e-05
6.85695e-05
6.64892e-05
6.43901e-05
6.22796e-05
6.01567e-05
5.80312e-05
5.59036e-05
5.37852e-05
5.16772e-05
4.95919e-05
4.75304e-05
4.55039e-05
4.35126e-05
4.15648e-05
3.9659e-05
3.77993e-05
3.59809e-05
3.42029e-05
3.24475e-05
3.07186e-05
2.90292e-05
2.73146e-05
2.56155e-05
2.38898e-05
2.21465e-05
2.03479e-05
1.84812e-05
1.65464e-05
1.46225e-05
1.27026e-05
1.10429e-05
1.00817e-05
1.19768e-05
1.21319e-05
0.000116988
0.000117216
0.000117304
0.00011738
0.000117448
0.000117486
0.000117543
0.000117554
0.000117598
0.000117586
0.000117613
0.00011758
0.000117585
0.000117533
0.000117516
0.000117444
0.000117402
0.000117309
0.000117239
0.000117122
0.000117021
0.000116878
0.000116743
0.000116569
0.000116397
0.000116189
0.000115979
0.000115735
0.000115485
0.000115212
0.000114934
0.000114632
0.000114323
0.000113991
0.000113648
0.00011328
0.000112905
0.000112508
0.000112092
0.000111652
0.000111189
0.000110699
0.000110184
0.000109636
0.000109059
0.000108448
0.000107811
0.000107143
0.000106448
0.000105712
0.000104937
0.000104115
0.000103241
0.00010231
0.000101311
9.98167e-05
9.82322e-05
9.65798e-05
9.49001e-05
9.31649e-05
9.14023e-05
8.9595e-05
8.77708e-05
8.59092e-05
8.40247e-05
8.2116e-05
8.01423e-05
7.81512e-05
7.61076e-05
7.40406e-05
7.193e-05
6.97936e-05
6.76115e-05
6.54007e-05
6.31426e-05
6.08497e-05
5.85062e-05
5.61214e-05
5.36837e-05
5.12011e-05
4.86678e-05
4.60936e-05
4.34794e-05
4.08392e-05
3.81823e-05
3.55296e-05
3.28976e-05
3.03118e-05
2.78007e-05
2.53782e-05
2.30271e-05
2.07486e-05
1.8541e-05
1.63012e-05
1.41358e-05
1.21328e-05
1.03201e-05
8.92252e-06
8.3798e-06
1.15383e-05
7.50196e-05
7.54601e-05
7.55432e-05
7.58174e-05
7.59085e-05
7.61343e-05
7.62438e-05
7.64381e-05
7.65636e-05
7.67363e-05
7.68724e-05
7.70301e-05
7.71717e-05
7.73185e-05
7.74612e-05
7.75992e-05
7.77396e-05
7.78696e-05
7.80047e-05
7.81267e-05
7.82541e-05
7.83674e-05
7.84852e-05
7.85889e-05
7.8696e-05
7.87898e-05
7.88857e-05
7.89701e-05
7.90564e-05
7.91333e-05
7.92104e-05
7.92785e-05
7.93449e-05
7.94022e-05
7.94559e-05
7.95001e-05
7.95393e-05
7.95674e-05
7.95919e-05
7.9606e-05
7.96143e-05
7.96127e-05
7.96038e-05
7.9585e-05
7.95585e-05
7.95226e-05
7.9477e-05
7.94156e-05
7.93393e-05
7.92427e-05
7.91255e-05
7.89831e-05
7.88143e-05
7.86152e-05
7.83846e-05
7.81248e-05
7.78495e-05
7.75403e-05
7.7209e-05
7.68355e-05
7.64246e-05
7.59534e-05
7.51172e-05
7.42381e-05
7.32874e-05
7.23041e-05
7.12566e-05
7.01725e-05
6.90233e-05
6.78192e-05
6.6552e-05
6.52378e-05
6.38301e-05
6.23566e-05
6.07901e-05
5.91424e-05
5.7395e-05
5.55554e-05
5.36117e-05
5.1571e-05
4.94275e-05
4.71901e-05
4.48591e-05
4.24468e-05
3.99604e-05
3.74148e-05
3.47999e-05
3.21347e-05
2.93458e-05
2.64707e-05
2.35033e-05
2.04739e-05
1.74944e-05
1.46397e-05
1.19499e-05
9.59488e-06
7.77212e-06
6.54372e-06
5.8738e-06
6.77638e-06
6.97968e-06
6.99661e-06
7.00881e-06
7.02249e-06
7.0368e-06
7.05344e-06
7.0679e-06
7.08608e-06
7.10106e-06
7.12006e-06
7.13587e-06
7.15534e-06
7.17215e-06
7.19196e-06
7.20981e-06
7.22996e-06
7.24883e-06
7.26936e-06
7.28922e-06
7.31022e-06
7.33105e-06
7.35263e-06
7.37444e-06
7.39677e-06
7.41962e-06
7.4429e-06
7.46692e-06
7.49135e-06
7.51668e-06
7.54243e-06
7.56915e-06
7.59633e-06
7.62455e-06
7.6533e-06
7.68313e-06
7.71362e-06
7.74526e-06
7.77766e-06
7.81133e-06
7.84587e-06
7.88177e-06
7.91867e-06
7.957e-06
7.99646e-06
8.03735e-06
8.07941e-06
8.12277e-06
8.16717e-06
8.21285e-06
8.25954e-06
8.30751e-06
8.35655e-06
8.407e-06
8.45881e-06
8.51238e-06
8.56782e-06
8.62508e-06
8.68323e-06
8.74248e-06
8.80112e-06
8.85923e-06
8.91455e-06
8.96691e-06
9.02366e-06
9.07958e-06
9.14042e-06
9.20171e-06
9.26777e-06
9.33496e-06
9.40668e-06
9.4811e-06
9.55988e-06
9.63949e-06
9.72443e-06
9.81049e-06
9.90138e-06
9.99404e-06
1.00914e-05
1.01915e-05
1.0297e-05
1.04071e-05
1.05249e-05
1.06507e-05
1.0788e-05
1.09377e-05
1.10987e-05
1.12539e-05
1.13619e-05
1.13837e-05
1.12517e-05
1.07939e-05
9.77615e-06
8.05819e-06
5.93306e-06
3.62233e-06
2.63784e-06
2.5571e-06
3.9181e-06
4.01866e-06
4.33096e-06
1.09392e-05
2.0773e-06
2.60058e-06
3.51741e-06
4.54832e-06
5.6231e-06
6.48738e-06
7.33696e-06
8.15021e-06
8.90631e-06
9.61983e-06
1.03378e-05
1.14561e-05
1.33346e-05
1.54692e-05
1.78505e-05
1.75972e-05
1.55426e-05
1.0288e-05
3.99578e-06
5.87939e-06
2.18611e-06
2.47511e-06
3.18429e-06
4.05636e-06
4.86398e-06
5.69322e-06
6.55227e-06
7.41563e-06
8.29932e-06
9.2748e-06
1.03721e-05
1.20249e-05
1.40983e-05
1.70521e-05
1.83234e-05
1.74933e-05
1.47081e-05
9.53368e-06
3.9672e-06
4.94574e-06
2.69535e-06
2.90119e-06
3.41678e-06
4.01101e-06
4.71734e-06
5.48163e-06
6.31628e-06
7.22214e-06
8.38968e-06
9.50982e-06
1.10206e-05
1.29384e-05
1.58351e-05
1.80253e-05
1.83045e-05
1.71512e-05
1.40032e-05
8.87126e-06
3.84014e-06
5.05633e-06
3.4395e-06
3.6382e-06
3.87592e-06
4.36884e-06
4.92956e-06
5.67437e-06
6.58276e-06
7.71555e-06
9.4888e-06
1.12183e-05
1.29526e-05
1.57391e-05
1.82189e-05
1.91965e-05
1.88204e-05
1.70297e-05
1.32354e-05
7.97884e-06
3.25929e-06
5.68865e-06
4.47722e-06
4.617e-06
4.63444e-06
5.19477e-06
5.69383e-06
6.58665e-06
7.84434e-06
9.60073e-06
1.31089e-05
1.47762e-05
1.70887e-05
1.93505e-05
2.04359e-05
2.0438e-05
1.92194e-05
1.65379e-05
1.24911e-05
6.88092e-06
2.37762e-06
6.89552e-06
5.97729e-06
6.04872e-06
6.02787e-06
6.77368e-06
7.7702e-06
9.35339e-06
1.16083e-05
1.61255e-05
1.95206e-05
2.09946e-05
2.23863e-05
2.30766e-05
2.28755e-05
2.16758e-05
1.9102e-05
1.59599e-05
1.15565e-05
5.14981e-06
1.46982e-06
9.04401e-06
8.62816e-06
8.85982e-06
9.46614e-06
1.11855e-05
1.36764e-05
1.70881e-05
2.20412e-05
2.87858e-05
2.94359e-05
2.91165e-05
2.83245e-05
2.69204e-05
2.47824e-05
2.16826e-05
1.85273e-05
1.48204e-05
1.01087e-05
3.8257e-06
7.21297e-07
1.46614e-05
1.61416e-05
1.73702e-05
1.96686e-05
2.32001e-05
2.75263e-05
3.31006e-05
4.00668e-05
3.99383e-05
3.77747e-05
3.42839e-05
3.16674e-05
2.81069e-05
2.49254e-05
2.08574e-05
1.70832e-05
1.29202e-05
8.10629e-06
2.7817e-06
2.76495e-07
3.25372e-05
3.54943e-05
3.6721e-05
3.91825e-05
4.36368e-05
4.79802e-05
5.20349e-05
4.78069e-05
4.41849e-05
4.0258e-05
3.63841e-05
3.25917e-05
2.83787e-05
2.33274e-05
1.85642e-05
1.40683e-05
1.01896e-05
6.47304e-06
2.42835e-06
1.23903e-07
5.28262e-05
5.57104e-05
5.59642e-05
5.74678e-05
6.23186e-05
5.94378e-05
5.51465e-05
5.01888e-05
4.60988e-05
4.11419e-05
3.70609e-05
3.18893e-05
2.70268e-05
1.9761e-05
1.40458e-05
9.65936e-06
7.63381e-06
6.21479e-06
3.03767e-06
2.01193e-07
5.0339e-05
5.30713e-05
5.34384e-05
5.50214e-05
5.98174e-05
5.77857e-05
5.36721e-05
4.89111e-05
4.50532e-05
4.02637e-05
3.65846e-05
3.1458e-05
2.7622e-05
2.04827e-05
1.48245e-05
9.79906e-06
7.25557e-06
5.25317e-06
2.31804e-06
1.63467e-07
2.80184e-05
3.09145e-05
3.22732e-05
3.47469e-05
3.91454e-05
4.36859e-05
4.96406e-05
4.56361e-05
4.26532e-05
3.84297e-05
3.56725e-05
3.13243e-05
2.8345e-05
2.39307e-05
1.93645e-05
1.46083e-05
1.00109e-05
5.49586e-06
1.68922e-06
1.11858e-07
1.3101e-05
1.40432e-05
1.502e-05
1.70656e-05
2.02284e-05
2.42763e-05
2.9538e-05
3.64252e-05
3.9768e-05
3.61566e-05
3.40278e-05
3.06163e-05
2.76764e-05
2.45089e-05
2.12678e-05
1.73752e-05
1.29798e-05
7.81423e-06
2.37302e-06
1.44604e-07
8.63795e-06
8.11604e-06
8.2633e-06
8.6584e-06
1.00768e-05
1.22197e-05
1.52206e-05
1.98407e-05
2.63204e-05
2.74854e-05
2.77803e-05
2.75913e-05
2.66686e-05
2.47323e-05
2.14475e-05
1.86204e-05
1.48285e-05
1.00162e-05
3.48836e-06
3.82562e-07
6.73715e-06
5.80478e-06
5.86915e-06
5.8318e-06
6.513e-06
7.37306e-06
8.75892e-06
1.07484e-05
1.48371e-05
1.81942e-05
1.9984e-05
2.17328e-05
2.27518e-05
2.27849e-05
2.18402e-05
1.89572e-05
1.58309e-05
1.14938e-05
5.11417e-06
1.17957e-06
5.62055e-06
4.42674e-06
4.56436e-06
4.60684e-06
5.15426e-06
5.6444e-06
6.4886e-06
7.64085e-06
9.24669e-06
1.23713e-05
1.41504e-05
1.6526e-05
1.90584e-05
2.03537e-05
2.0461e-05
1.9354e-05
1.64129e-05
1.24351e-05
6.93402e-06
2.22741e-06
5.0425e-06
3.43528e-06
3.63732e-06
3.9155e-06
4.41435e-06
4.99448e-06
5.72911e-06
6.6109e-06
7.68792e-06
9.33927e-06
1.09278e-05
1.26829e-05
1.54304e-05
1.81285e-05
1.92552e-05
1.88986e-05
1.70965e-05
1.31895e-05
8.03133e-06
3.2085e-06
5.0478e-06
2.73358e-06
2.93282e-06
3.46342e-06
4.09244e-06
4.80634e-06
5.58391e-06
6.42173e-06
7.31373e-06
8.42233e-06
9.50482e-06
1.09525e-05
1.28383e-05
1.5664e-05
1.8042e-05
1.83941e-05
1.72085e-05
1.39487e-05
8.94598e-06
3.79937e-06
6.12042e-06
2.24198e-06
2.53644e-06
3.25447e-06
4.13405e-06
4.98456e-06
5.8193e-06
6.68659e-06
7.55684e-06
8.43151e-06
9.37011e-06
1.043e-05
1.20455e-05
1.40903e-05
1.69971e-05
1.83778e-05
1.75188e-05
1.47196e-05
9.58564e-06
3.95309e-06
1.0972e-05
2.1381e-06
2.66038e-06
3.59613e-06
4.64446e-06
5.72311e-06
6.63723e-06
7.48906e-06
8.31074e-06
9.06846e-06
9.77706e-06
1.04658e-05
1.15064e-05
1.33022e-05
1.54676e-05
1.78815e-05
1.76247e-05
1.55207e-05
1.03486e-05
3.99025e-06
1.23421e-06
0.000116558
0.000294184
0.000330906
0.00033481
0.000335356
0.000335357
0.000335342
0.000335343
0.000335345
0.000335345
0.000335343
0.000335342
0.000335357
0.000335356
0.00033481
0.000330906
0.000294184
0.000116558
1.23421e-06
1.36973e-06
6.81669e-05
0.000219584
0.000309503
0.000330909
0.000334527
0.000335273
0.000335315
0.000335296
0.000335287
0.000335287
0.000335296
0.000335315
0.000335273
0.000334527
0.000330909
0.000309504
0.000219584
6.81671e-05
1.36973e-06
1.51338e-06
5.28962e-05
0.00017646
0.00028058
0.000322148
0.000332504
0.000334604
0.0003351
0.000335168
0.000335172