/*--------------------------------*- C++ -*----------------------------------*\
| =========                 |                                                 |
| \\      /  F ield         | OpenFOAM: The Open Source CFD Toolbox           |
|  \\    /   O peration     | Version:  2.1.0                                 |
|   \\  /    A nd           | Web:      www.OpenFOAM.org                      |
|    \\/     M anipulation  |                                                 |
\*---------------------------------------------------------------------------*/
FoamFile
{
    version     2.0;
    format      ascii;
    class       volScalarField;
    location    "0.41";
    object      omega;
}
// * * * * * * * * * * * * * * * * * * * * * * * * * * * * * * * * * * * * * //

dimensions      [0 0 -1 0 0 0 0];

internalField   nonuniform List<scalar> 
6400
(
1644.71
1645.68
1645.76
1645.62
1645.08
1644.82
1644.09
1643.73
1642.91
1642.5
1641.62
1641.13
1640.23
1639.64
1638.72
1638.03
1637.09
1636.29
1635.31
1634.42
1633.41
1632.43
1631.38
1630.33
1629.24
1628.13
1627
1625.83
1624.65
1623.41
1622.17
1620.88
1619.57
1618.2
1616.82
1615.37
1613.89
1612.35
1610.77
1609.11
1607.39
1605.56
1603.65
1601.61
1599.45
1597.13
1594.66
1592
1589.14
1586.06
1582.75
1579.19
1575.35
1571.15
1566.53
1561.44
1556.01
1550.35
1544.36
1538.12
1531.57
1524.76
1517.65
1510.28
1502.54
1494.51
1486.09
1477.33
1468.06
1458.31
1448.05
1437.2
1425.76
1413.65
1400.88
1387.4
1373.24
1358.4
1342.91
1326.84
1310.22
1293.08
1275.22
1256.01
1234.64
1212.13
1187.36
1159.56
1127.27
1088.22
1038.87
973.195
883.828
764.266
611.005
537.968
565.938
735.224
892.963
942.85
689.225
689.404
690.6
691.535
692.875
694.217
695.607
697.155
698.607
700.282
701.814
703.582
705.209
707.056
708.786
710.708
712.545
714.545
716.49
718.572
720.626
722.797
724.967
727.238
729.533
731.924
734.359
736.891
739.487
742.18
744.952
747.824
750.791
753.867
757.055
760.364
763.806
767.393
771.105
774.959
778.956
783.11
787.423
791.907
796.568
801.416
806.459
811.706
817.168
822.853
828.774
834.944
841.358
848.017
854.936
862.111
869.6
877.44
885.628
894.201
903.173
912.581
922.45
932.818
943.721
955.214
967.226
979.707
992.752
1006.52
1021
1036.28
1052.39
1069.41
1087.41
1106.47
1126.69
1148.16
1171.02
1195.4
1221.51
1249.59
1279.27
1309.7
1341.84
1374.62
1407.62
1439.58
1469.25
1495.01
1513.68
1522.25
1523.97
1509.65
1474.29
1395.01
1285.11
1150.8
1005.86
848.258
500.12
503.247
504.735
507.77
509.776
512.848
515.175
518.288
520.864
524.04
526.835
530.099
533.102
536.478
539.684
543.195
546.608
550.276
553.893
557.725
561.549
565.56
569.599
573.805
578.067
582.485
586.974
591.614
596.349
601.231
606.226
611.37
616.643
622.071
627.64
633.369
639.25
645.294
651.548
657.991
664.618
671.464
678.524
685.818
693.351
701.137
709.186
717.51
726.118
735.02
744.221
753.725
763.547
773.696
784.184
795.027
806.25
817.874
829.909
842.376
855.289
868.664
882.513
896.847
911.671
926.991
942.839
959.256
976.149
993.393
1011
1028.88
1047.01
1065.32
1083.76
1102.3
1120.91
1139.57
1158.29
1177.06
1195.92
1214.9
1234.01
1253.27
1272.68
1292.03
1311.14
1329.51
1346.45
1360.8
1368.67
1371.5
1365.01
1338.81
1290.21
1210.49
1102.07
960.867
797.299
628.074
450.87
455.82
458.011
462.382
465.155
469.501
472.69
477.039
480.567
484.965
488.791
493.28
497.382
501.999
506.367
511.143
515.772
520.736
525.631
530.81
535.98
541.396
546.847
552.518
558.255
564.19
570.217
576.429
582.751
589.254
595.885
602.695
609.647
616.781
624.07
631.545
639.186
647.019
655.012
663.199
671.59
680.156
688.911
697.843
706.954
716.236
725.686
735.295
745.055
754.957
764.992
775.148
785.417
795.79
806.252
816.801
827.424
838.117
848.864
859.659
870.485
881.334
892.185
903.028
913.834
924.586
935.286
945.938
956.499
966.961
977.289
987.471
997.45
1007.17
1016.61
1025.67
1034.31
1042.38
1049.84
1056.5
1062.23
1066.84
1069.86
1071.23
1071.54
1069.01
1064.14
1056.08
1044.63
1028.96
1008.5
982.268
949.016
906.966
854.11
788.69
712.109
629.146
552.924
496.64
439.6
445.637
448.258
453.497
456.784
461.975
465.734
470.904
475.037
480.227
484.679
489.931
494.665
500.011
505.002
510.468
515.698
521.301
526.761
532.52
538.2
544.124
550.014
556.105
562.195
568.455
574.74
581.17
587.634
594.222
600.849
607.581
614.354
621.214
628.113
635.083
642.086
649.143
656.222
663.339
670.462
677.612
684.759
691.914
699.051
706.177
713.267
720.325
727.329
734.282
741.163
747.973
754.693
761.325
767.839
774.247
780.548
786.705
792.691
798.476
804.038
809.336
814.344
819.017
823.326
827.225
830.676
833.635
836.053
837.887
838.919
839.35
839.395
838.177
836.45
833.557
829.922
825.112
819.379
812.432
804.415
795.138
784.683
773.013
760.17
746.065
730.913
714.549
697.134
678.469
658.543
636.981
613.649
587.822
558.854
527.611
495.18
465.338
444.222
432.575
430.089
436.03
438.577
443.687
446.824
451.853
455.383
460.324
464.141
469.016
473.056
477.89
482.105
486.919
491.275
496.081
500.548
505.354
509.908
514.714
519.332
524.139
528.8
533.598
538.283
543.064
547.75
552.542
557.276
562.08
566.826
571.61
576.331
581.06
585.715
590.352
594.9
599.402
603.799
608.121
612.319
616.412
620.348
624.158
627.776
631.24
634.481
637.533
640.332
642.904
645.191
647.211
648.91
650.3
651.333
652.05
652.404
652.526
652.315
651.582
650.537
648.981
647.046
644.606
641.745
638.39
634.595
630.32
625.604
620.43
614.829
608.84
602.488
595.769
588.767
581.437
573.889
566.069
558.138
550.037
541.856
533.606
525.366
517.142
508.991
500.888
492.752
484.591
476.474
468.273
460
451.498
442.732
433.527
424.012
414.663
406.896
403.184
402.146
402.127
400.619
405.401
407.428
411.493
413.902
417.878
420.516
424.369
427.152
430.878
433.753
437.357
440.283
443.772
446.715
450.089
453.02
456.278
459.17
462.305
465.133
468.139
470.873
473.708
476.311
478.955
481.389
483.859
486.136
488.394
490.445
492.431
494.195
495.855
497.275
498.559
499.588
500.452
501.047
501.377
501.505
501.508
501.059
500.518
499.573
498.488
497.032
495.408
493.441
491.292
488.83
486.186
483.263
480.168
476.857
473.393
469.699
465.888
461.897
457.823
453.641
449.413
445.136
440.85
436.554
432.281
428.12
424.037
420.122
416.337
412.769
409.359
406.167
403.16
400.395
397.827
395.501
393.349
391.463
389.734
388.275
386.965
385.892
384.942
384.18
383.497
382.937
382.404
381.92
381.411
380.918
380.423
380.118
380.002
380.503
381.779
384.303
388.897
392.595
393.657
353.946
357.325
358.716
361.448
362.93
365.513
367.002
369.381
370.827
372.978
374.335
376.251
377.483
379.157
380.232
381.654
382.545
383.702
384.383
385.261
385.706
386.249
386.498
386.638
386.671
386.533
386.206
385.716
384.969
384.079
382.918
381.629
380.069
378.393
376.465
374.438
372.179
369.838
367.291
364.682
361.911
359.094
356.142
353.189
350.131
347.113
344.028
341.017
337.981
335.05
332.135
329.328
326.625
324.077
321.656
319.409
317.33
315.455
313.782
312.339
311.128
310.168
309.461
309.085
308.93
308.917
309.339
309.855
310.756
311.774
313.142
314.638
316.447
318.39
320.615
322.971
325.577
328.307
331.242
334.307
337.562
340.918
344.422
347.992
351.665
355.363
359.113
362.844
366.582
370.277
373.967
377.642
381.378
385.218
389.398
394.18
399.786
406.769
412.324
414.589
293.969
295.017
295.399
296.038
296.329
296.722
296.884
296.986
296.995
296.888
296.587
296.286
295.707
295.184
294.341
293.582
292.488
291.488
290.156
288.921
287.367
285.909
284.17
282.527
280.654
278.854
276.872
274.959
272.907
270.936
268.868
266.896
264.867
262.95
261.01
259.192
257.392
255.724
254.114
252.645
251.271
250.046
248.948
248.01
247.222
246.608
246.169
245.954
245.874
245.943
246.333
246.852
247.617
248.521
249.655
250.944
252.453
254.127
256.012
258.069
260.332
262.773
265.414
268.239
271.262
274.479
277.882
281.472
285.257
289.229
293.404
297.77
302.35
307.128
312.128
317.335
322.776
328.435
334.338
340.466
346.846
353.46
360.329
367.435
374.792
382.377
390.193
398.212
406.425
414.799
423.323
431.971
440.75
449.673
458.818
468.406
479.133
490.762
502.435
508.2
237.427
236.184
235.636
234.491
233.767
232.559
231.689
230.418
229.437
228.111
227.043
225.687
224.559
223.196
222.037
220.692
219.533
218.233
217.106
215.877
214.813
213.684
212.715
211.711
210.865
210.009
209.312
208.626
208.1
207.605
207.271
207.001
206.875
206.828
206.867
207.087
207.37
207.823
208.356
209.05
209.841
210.782
211.825
213.011
214.307
215.743
217.292
218.978
220.779
222.717
224.779
226.974
229.287
231.726
234.288
236.976
239.789
242.73
245.8
249.002
252.336
255.809
259.419
263.174
267.074
271.128
275.334
279.706
284.241
288.956
293.848
298.935
304.215
309.709
315.417
321.359
327.54
333.98
340.689
347.687
354.988
362.615
370.589
378.934
387.676
396.847
406.48
416.614
427.296
438.579
450.525
463.207
476.714
491.153
506.639
523.256
541.003
559.494
574.195
580.754
261.968
261.421
261.113
260.478
259.95
259.189
258.454
257.547
256.623
255.564
254.468
253.256
252.02
250.673
249.314
247.87
246.415
244.905
243.387
241.845
240.3
238.761
237.227
235.727
234.244
232.819
231.426
230.111
228.844
227.675
226.57
225.578
224.668
223.883
223.198
222.651
222.219
221.952
221.827
221.794
221.957
222.265
222.712
223.31
224.048
224.939
225.97
227.154
228.479
229.957
231.576
233.346
235.258
237.318
239.528
241.885
244.372
247.013
249.78
252.707
255.759
258.975
262.32
265.833
269.479
273.299
277.259
281.399
285.69
290.17
294.814
299.657
304.678
309.913
315.347
321.012
326.895
333.029
339.408
346.06
352.986
360.215
367.753
375.63
383.856
392.465
401.472
410.913
420.809
431.202
442.123
453.638
465.826
478.768
492.601
507.466
523.461
540.235
553.995
560.224
321.271
322.959
323.615
324.811
325.395
326.391
326.87
327.63
327.987
328.483
328.699
328.832
328.852
328.732
328.394
328.023
327.371
326.729
325.781
324.863
323.636
322.445
320.956
319.508
317.778
316.093
314.161
312.262
310.146
308.078
305.819
303.622
301.265
298.984
296.576
294.257
291.845
289.542
287.185
284.954
282.711
280.612
278.57
276.688
274.901
273.29
271.805
270.514
269.379
268.453
267.706
267.181
266.918
266.817
266.864
267.276
267.757
268.568
269.48
270.701
272.042
273.67
275.433
277.464
279.641
282.072
284.656
287.463
290.423
293.59
296.912
300.434
304.102
307.97
311.985
316.195
320.549
325.093
329.779
334.647
339.634
344.779
350.033
355.425
360.912
366.516
372.198
377.975
383.818
389.743
395.737
401.808
407.961
414.382
421.186
428.801
437.533
447.815
458.704
464.428
371.532
374.986
376.422
379.234
380.806
383.484
385.101
387.603
389.215
391.525
393.109
395.236
396.766
398.688
400.112
401.816
403.088
404.556
405.636
406.848
407.702
408.635
409.234
409.868
410.184
410.415
410.488
410.47
410.146
409.775
409.113
408.384
407.379
406.295
404.951
403.523
401.807
399.951
397.826
395.571
393.073
390.46
387.637
384.725
381.639
378.487
375.222
371.915
368.548
365.174
361.791
358.439
355.122
351.868
348.68
345.619
342.691
339.933
337.319
334.914
332.684
330.689
328.901
327.371
326.066
325.026
324.202
323.635
323.347
323.236
323.245
323.66
324.108
324.895
325.715
326.811
327.938
329.281
330.641
332.161
333.744
335.473
337.253
339.156
341.1
343.165
345.269
347.486
349.757
352.16
354.663
357.367
360.269
363.457
366.906
370.997
376.125
382.738
387.597
389.385
408.39
413.193
415.233
419.294
421.73
425.679
428.351
432.162
434.976
438.648
441.563
445.151
448.162
451.672
454.737
458.171
461.252
464.604
467.671
470.93
473.951
477.104
480.05
483.079
485.92
488.802
491.515
494.222
496.765
499.271
501.606
503.876
505.964
507.958
509.756
511.432
512.95
514.355
515.557
516.599
517.401
517.988
518.273
518.376
518.27
517.758
517.065
515.999
514.705
513.063
511.166
508.944
506.459
503.673
500.633
497.322
493.777
490.007
486.066
481.945
477.679
473.239
468.681
464.019
459.284
454.499
449.686
444.943
440.241
435.663
431.196
426.914
422.789
418.89
415.114
411.582
408.192
405.049
402.047
399.271
396.569
394.077
391.637
389.356
387.092
384.958
382.808
380.738
378.628
376.58
374.505
372.534
370.624
369.174
368.132
367.746
368.568
372.329
375.455
376.348
424.401
430.21
432.705
437.684
440.77
445.664
449.15
453.966
457.749
462.519
466.538
471.293
475.505
480.266
484.638
489.419
493.922
498.732
503.344
508.185
512.885
517.756
522.524
527.42
532.238
537.149
542.001
546.917
551.785
556.696
561.566
566.456
571.301
576.143
580.929
585.688
590.413
595.126
599.781
604.395
608.926
613.384
617.736
621.985
626.097
630.065
633.874
637.497
640.929
644.139
647.121
649.843
652.298
654.456
656.305
657.818
658.981
659.708
660.039
660.122
659.652
658.923
657.725
656.17
654.129
651.674
648.724
645.334
641.455
637.128
632.326
627.085
621.391
615.294
608.868
602.082
594.977
587.602
579.92
572.023
563.851
555.532
546.971
538.285
529.376
520.281
510.939
501.365
491.378
480.931
470.083
458.668
446.701
434.108
421.59
408.856
398.124
391.516
388.681
387.41
425.722
431.4
433.87
438.779
441.883
446.743
450.298
455.141
459.058
463.932
468.152
473.091
477.58
482.622
487.364
492.534
497.515
502.833
508.042
513.523
518.953
524.606
530.248
536.079
541.927
547.936
553.982
560.167
566.4
572.756
579.168
585.688
592.266
598.939
605.672
612.492
619.371
626.323
633.327
640.393
647.501
654.657
661.846
669.068
676.31
683.57
690.834
698.09
705.323
712.532
719.712
726.847
733.93
740.947
747.892
754.749
761.517
768.171
774.71
781.096
787.308
793.379
799.233
804.873
810.237
815.309
820.031
824.38
828.298
831.757
834.702
837.092
838.874
839.803
840.166
840.115
838.668
836.766
833.545
829.552
824.201
817.799
809.92
800.722
789.877
777.48
763.355
747.341
729.477
709.488
687.301
662.48
634.732
603.538
569.725
532.781
495.648
460.593
435.411
418.751
434.014
438.563
440.588
444.618
447.19
451.191
454.145
458.141
461.399
465.428
468.953
473.059
476.827
481.045
485.05
489.41
493.647
498.174
502.646
507.363
512.078
517.008
521.975
527.137
532.369
537.784
543.293
548.975
554.767
560.728
566.813
573.066
579.459
586.026
592.748
599.654
606.733
614.007
621.453
629.094
636.918
644.94
653.149
661.553
670.14
678.94
687.965
697.221
706.725
716.433
726.336
736.43
746.703
757.147
767.75
778.497
789.384
800.382
811.492
822.687
833.97
845.322
856.74
868.218
879.742
891.301
902.873
914.441
925.965
937.415
948.85
960.204
971.489
982.653
993.69
1004.53
1015.1
1025.38
1035.22
1044.57
1053.23
1061.09
1067.88
1073.39
1076.74
1078.16
1078.3
1073.81
1066.5
1053.77
1035.87
1010.64
977.08
932.686
877.123
807.323
725.168
634.485
553.233
488.474
481.43
484.19
485.525
488.26
490.08
492.853
494.965
497.773
500.108
502.972
505.505
508.452
511.175
514.219
517.117
520.275
523.348
526.637
529.888
533.324
536.761
540.359
543.987
547.762
551.591
555.557
559.597
563.769
568.032
572.424
576.918
581.545
586.289
591.17
596.178
601.328
606.61
612.034
617.646
623.43
629.415
635.601
642.009
648.653
655.554
662.702
670.093
677.739
685.636
693.827
702.33
711.156
720.324
729.842
739.721
749.966
760.606
771.639
783.092
794.976
807.318
820.134
833.454
847.318
861.724
876.71
892.272
908.44
925.211
942.615
960.693
979.133
998.073
1017.39
1037.07
1057.03
1077.2
1097.55
1118.03
1138.61
1159.27
1180
1200.74
1221.57
1242.5
1263.47
1284.29
1304.4
1323.3
1339.65
1349.48
1353.21
1348.42
1321.03
1271.29
1196.07
1093.14
963.552
802.46
630.338
664.945
664.892
665.919
666.675
667.849
668.995
670.209
671.551
672.816
674.275
675.611
677.155
678.575
680.189
681.701
683.383
684.993
686.745
688.454
690.281
692.09
693.999
695.91
697.906
699.923
702.016
704.144
706.347
708.603
710.935
713.338
715.827
718.4
721.067
723.833
726.708
729.701
732.824
736.059
739.425
742.925
746.567
750.36
754.308
758.422
762.703
767.162
771.805
776.648
781.701
786.976
792.483
798.239
804.252
810.545
817.136
824.012
831.207
838.731
846.596
854.821
863.407
872.371
881.867
891.81
902.319
913.351
925.005
937.266
950.217
963.614
977.903
992.904
1008.84
1025.66
1043.51
1062.42
1082.51
1103.85
1126.55
1150.71
1176.45
1203.88
1233.19
1264.36
1296.13
1328.66
1360.29
1389.49
1413.93
1427.9
1433.05
1430.83
1414.56
1382.6
1321.62
1233.53
1122.35
997.855
848.985
1601.08
1601.78
1601.78
1601.33
1600.73
1600.24
1599.4
1598.89
1597.96
1597.39
1596.43
1595.79
1594.81
1594.1
1593.11
1592.3
1591.29
1590.39
1589.35
1588.36
1587.28
1586.2
1585.07
1583.91
1582.73
1581.51
1580.28
1579
1577.73
1576.41
1575.1
1573.73
1572.36
1570.95
1569.53
1568.06
1566.59
1565.07
1563.54
1561.97
1560.38
1558.75
1557.09
1555.39
1553.64
1551.83
1549.96
1547.98
1545.9
1543.7
1541.39
1538.92
1536.31
1533.55
1530.65
1527.6
1524.4
1520.94
1517.22
1513.09
1508.52
1503.32
1497.45
1491.49
1485
1478.39
1471.29
1463.99
1456.17
1448.03
1439.37
1430.27
1420.4
1410
1398.71
1386.69
1373.64
1359.67
1344.53
1328.28
1310.73
1291.92
1271.71
1250.11
1226.96
1201.97
1174.12
1141.44
1102.56
1055.52
995.227
915.778
815.181
704.668
584.569
535.362
556.097
721.922
886.815
939.959
865.883
324.733
176.605
119.705
95.266
82.331
76.1285
73.1608
72.1887
74.0336
80.9558
97.4609
118.887
156.223
207.108
271.553
348.982
444.039
560.311
610.214
693.165
329.176
219.146
154.336
121.761
104.136
92.9371
87.467
85.5414
87.5374
99.6594
115.592
144.569
184.752
237.955
299.961
372.389
459.562
544.764
568.497
544.59
318.739
242.274
180.16
147.628
125.462
111.882
105.981
104.313
108.674
120.219
144.136
174.731
218.773
269.538
326.17
390.255
462.646
514.411
522.57
444.633
305.175
256.293
198.166
171.202
146.16
134.09
128.452
126.902
131.261
154.163
177.722
213.966
256.44
302.074
352.261
406.598
455.337
474.209
474.381
388.198
300.427
266.298
214.682
191.999
168.736
159.191
155.463
155.219
175.079
195.472
222.864
257.381
292.833
330.82
370.782
410.033
432.641
426.418
427.898
360.09
300.373
273.839
232.032
214.535
201.051
197.451
197.437
211.702
227.889
247.906
272.663
299.455
326.797
355.869
383.501
398.896
396.8
367.955
383.558
352.326
312.852
296.06
273.017
265.953
263.433
263.072
269.914
279.151
291.186
306.006
322.36
339.242
355.548
369.807
376.613
374.914
343.692
300.731
349.882
386.902
375.247
371.429
361.646
356.887
351.366
349.164
348.633
350.794
355.1
359.397
364.165
366.783
367.783
366.306
357.922
331.118
277.658
232.716
331.153
499.071
483.837
476.448
457.538
448.643
434.296
427.255
417.574
412.379
404.32
397.846
388.676
378.143
365.455
349.169
316.715
268.412
203.959
161.615
324.952
563.29
541.892
532.232
509.167
498.119
479.469
469.184
452.345
440.778
423.86
409.694
390.464
370.385
341.729
302.206
251.857
198.053
143.421
116.841
328.08
544.437
524.281
515.222
493.461
483.072
465.67
456.345
441.371
431.172
416.506
403.993
387.434
369.686
345.109
309.401
259.667
203.579
143.56
114.114
326.55
457.671
446.476
440.853
424.894
417.596
406.637
401.372
395.697
392.895
389.455
385.975
381.294
374.262
364.77
353.391
326.931
279.361
212.069
170.824
324.468
358.933
343.822
338.832
330.879
327.479
324.37
323.528
326.162
331.03
338.56
346.576
354.814
362.48
366.296
367.643
363.237
339.625
287.018
239.409
325.787
336.671
296.791
279.258
254.059
245.663
242.696
242.505
250.879
261.592
275.588
292.92
311.74
331.969
352.099
370.57
379.758
380.954
352.335
307.721
335.532
346.776
288.173
262.278
221.034
203.619
189.116
184.772
184.29
198.083
215.349
236.818
263.136
291.951
321.674
353.782
385.634
403.673
404.797
374.408
370.182
374.5
289.306
256.024
206.257
184.306
161.473
151.818
147.739
147.142
165.181
186.556
214.618
250.449
287.66
327.721
370.153
413.991
438.694
433.738
420.306
429.574
293.993
246.21
190.001
163.827
140.057
128.548
123.199
121.745
125.956
147.11
171.307
207.644
251.218
298.647
350.859
407.69
460.329
480.521
471.617
531.577
308.219
233.686
173.711
141.92
120.374
107.415
101.734
100.155
104.69
116.019
139.009
169.935
213.847
265.769
324.073
390.658
467.061
518.648
523.046
686.645
318.103
211.253
148.253
116.987
99.8554
89.516
84.4216
82.6355
84.68
96.1549
112.074
140.575
180.769
234.237
297.344
371.253
461.082
548.518
570.844
863.374
313.507
170.692
115.736
92.076
79.5891
73.1977
70.4928
69.7103
72.0728
78.7637
94.3791
116.008
152.737
203.759
268.89
347.701
444.755
563.131
613.227
646.053
32.1745
12.7362
11.3229
11.19
11.171
11.1705
11.1708
11.1706
11.1705
11.1705
11.1706
11.1708
11.1705
11.171
11.19
11.3229
12.7362
32.1745
646.054
672.741
55.0629
17.0386
12.087
11.3039
11.1803
11.1547
11.1529
11.1534
11.1536
11.1536
11.1534
11.1529
11.1547
11.1803
11.3039
12.087
17.0386
55.0627
672.74
698.453
71.0937
21.1542
13.3033
11.5874
11.2261
11.1552
11.1382
11.1358
11.1355
11.1355
11.1358
11.1382
11.1552
11.2261
11.5874
13.3033
21.1542
71.0936
698.453
723.136
85.8503
25.1369
14.6461
12.0431
11.3371
11.1684
11.1265
11.1183
11.1171
11.1171
11.1183
11.1265
11.1684
11.3371
12.0431
14.6461
25.1368
85.8501
723.136
746.743
101.867
29.2065
16.0658
12.5885
11.5234
11.2064
11.1273
11.105
11.1003
11.1003
11.105
11.1273
11.2064
11.5234
12.5885
16.0658
29.2065
101.867
746.743
769.31
118.433
33.3669
17.5406
13.1971
11.7624
11.283
11.1366
11.0944
11.0843
11.0843
11.0944
11.1366
11.283
11.7624
13.1971
17.5406
33.3669
118.433
769.31
790.728
134.968
37.5676
19.0511
13.8502
12.0431
11.3872
11.16
11.0918
11.0718
11.0718
11.0918
11.16
11.3872
12.0431
13.8502
19.0511
37.5677
134.968
790.729
810.982
151.251
41.7801
20.5851
14.5352
12.3571
11.5178
11.2031
11.0955
11.0625
11.0625
11.0955
11.2031
11.5178
12.3571
14.5352
20.5852
41.7801
151.251
810.982
829.955
167.079
45.9691
22.1303
15.2422
12.6968
11.6708
11.2604
11.1065
11.0594
11.0594
11.1065
11.2604
11.6708
12.6968
15.2422
22.1303
45.9692
167.079
829.955
847.653
182.401
50.1209
23.6797
15.9648
13.0568
11.8431
11.3324
11.129
11.0619
11.0619
11.129
11.3325
11.8431
13.0568
15.9648
23.6798
50.121
182.402
847.653
863.991
197.096
54.2105
25.2247
16.6968
13.4321
12.0315
11.4179
11.1609
11.0697
11.0698
11.1609
11.4179
12.0315
13.4321
16.6968
25.2248
54.2106
197.097
863.991
879.013
211.155
58.2321
26.7619
17.4347
13.8193
12.2335
11.5156
11.2021
11.0862
11.0862
11.2021
11.5156
12.2335
13.8193
17.4347
26.762
58.2323
211.155
879.012
892.663
224.491
62.1651
28.2844
18.1745
14.2149
12.4467
11.6242
11.2528
11.1113
11.1113
11.2528
11.6242
12.4467
14.2149
18.1745
28.2844
62.1653
224.492
892.663
905.026
237.118
66.009
29.7908
18.9141
14.6169
12.6691
11.7427
11.3126
11.1446
11.1446
11.3126
11.7427
12.6691
14.617
18.9141
29.7909
66.0092
237.119
905.026
916.068
248.971
69.7457
31.2754
19.6506
15.023
12.899
11.8698
11.381
11.1861
11.1861
11.381
11.8698
12.899
15.023
19.6506
31.2754
69.7459
248.971
916.067
925.904
260.09
73.3781
32.7379
20.383
15.4319
13.1352
12.0048
11.4576
11.2357
11.2357
11.4576
12.0048
13.1352
15.4319
20.383
32.738
73.3783
260.09
925.904
934.512
270.424
76.8907
34.1733
21.1088
15.8417
13.3762
12.1466
11.5418
11.293
11.293
11.5418
12.1466
13.3762
15.8418
21.1088
34.1733
76.8907
270.424
934.512
942.037
280.035
80.2891
35.5825
21.8276
16.2519
13.6211
12.2944
11.6331
11.3579
11.3579
11.6331
12.2944
13.6211
16.2519
21.8277
35.5826
80.2893
280.035
942.036
948.451
288.886
83.5603
36.9607
22.5374
16.6609
13.8691
12.4475
11.7309
11.4299
11.4299
11.7309
12.4475
13.8691
16.6609
22.5374
36.9607
83.5602
288.886
948.45
953.925
297.051
86.7123
38.3097
23.2383
17.0685
14.1194
12.6053
11.8348
11.5085
11.5085
11.8348
12.6053
14.1194
17.0685
23.2384
38.3098
86.7125
297.051
953.924
958.416
304.506
89.734
39.6249
23.9282
17.4734
14.3712
12.7671
11.9442
11.5934
11.5934
11.9442
12.7671
14.3712
17.4734
23.9282
39.6249
89.734
304.505
958.416
962.12
311.326
92.6355
40.9093
24.608
17.8757
14.6242
12.9325
12.0587
11.684
11.684
12.0587
12.9325
14.6242
17.8757
24.6081
40.9094
92.6358
311.326
962.12
964.967
317.506
95.4075
42.1579
25.2754
18.2741
14.8776
13.1009
12.1777
11.78
11.78
12.1777
13.1009
14.8776
18.2741
25.2754
42.1579
95.4075
317.505
964.966
967.18
323.103
98.0618
43.3751
25.9318
18.669
15.1313
13.2719
12.3009
11.8809
11.8809
12.3009
13.2719
15.1313
18.669
25.9319
43.3752
98.062
323.104
967.179
968.649
328.147
100.59
44.5553
26.5749
19.0592
15.3846
13.445
12.4277
11.9862
11.9862
12.4277
13.445
15.3846
19.0592
26.5749
44.5554
100.59
328.146
968.648
969.635
332.654
103.005
45.7044
27.2064
19.4453
15.6374
13.62
12.5579
12.0955
12.0955
12.5579
13.62
15.6374
19.4453
27.2064
45.7045
103.005
332.655
969.634
969.97
336.705
105.299
46.816
27.8239
19.826
15.8892
13.7964
12.691
12.2085
12.2085
12.691
13.7964
15.8892
19.826
27.8239
46.8161
105.299
336.702
969.969
969.834
340.242
107.488
47.8975
28.4297
20.2021
16.14
13.9741
12.8267
12.3248
12.3248
12.8267
13.9741
16.14
20.2021
28.4297
47.8975
107.488
340.244
969.833
969.425
343.403
109.561
48.9414
29.021
20.5725
16.3892
14.1525
12.9646
12.4441
12.4441
12.9646
14.1525
16.3892
20.5725
29.021
48.9415
109.561
343.399
969.424
968.579
346.14
111.539
49.9569
29.6008
20.9379
16.637
14.3316
13.1045
12.5659
12.5659
13.1045
14.3316
16.637
20.9379
29.6008
49.9568
111.538
346.143
968.578
967.379
348.534
113.406
50.9353
30.1659
21.2973
16.8828
14.511
13.2461
12.69
12.69
13.2461
14.511
16.8827
21.2972
30.1659
50.9354
113.406
348.529
967.378
965.891
350.552
115.188
51.8872
30.7196
21.6515
17.1267
14.6907
13.389
12.8161
12.8161
13.389
14.6907
17.1268
21.6515
30.7196
51.887
115.187
350.555
965.89
964.155
352.265
116.864
52.8029
31.2587
21.9995
17.3684
14.8702
13.5331
12.944
12.944
13.5331
14.8702
17.3684
21.9994
31.2587
52.8029
116.864
352.261
964.154
962.205
353.658
118.465
53.6943
31.7868
22.3423
17.608
15.0495
13.6782
13.0733
13.0733
13.6782
15.0495
17.6081
22.3423
31.7868
53.6941
118.464
353.66
962.204
960.073
354.766
119.965
54.5507
32.3006
22.6787
17.8451
15.2283
13.8239
13.2039
13.2039
13.8239
15.2283
17.845
22.6786
32.3005
54.5508
119.965
354.761
960.073
957.789
355.615
121.399
55.3853
32.8038
23.0099
18.0798
15.4067
13.9702
13.3355
13.3355
13.9702
15.4067
18.0799
23.0099
32.8039
55.385
121.398
355.617
957.788
955.381
356.175
122.736
56.186
33.293
23.3347
18.3118
15.5842
14.1168
13.468
13.468
14.1168
15.5842
18.3118
23.3346
33.2929
56.1862
122.737
356.171
955.382
952.87
356.557
124.016
56.9675
33.7724
23.6544
18.5414
15.761
14.2636
13.6011
13.6011
14.2636
15.761
18.5415
23.6544
33.7724
56.9672
124.014
356.558
952.869
950.286
356.613
125.204
57.7167
34.238
23.9676
18.7681
15.9367
14.4103
13.7346
13.7346
14.4103
15.9366
18.768
23.9675
34.2379
57.7169
125.205
356.611
950.287
947.635
356.52
126.341
58.4494
34.6947
24.2759
18.9922
16.1114
14.557
13.8684
13.8684
14.557
16.1114
18.9923
24.2761
34.6948
58.449
126.339
356.519
947.634
944.957
356.292
127.392
59.1511
35.1381
24.5779
19.2134
16.2848
14.7033
14.0024
14.0024
14.7033
16.2848
19.2132
24.5777
35.1378
59.1513
127.394
356.29
944.958
942.244
355.82
128.406
59.8395
35.5733
24.8751
19.4319
16.4571
14.8493
14.1364
14.1364
14.8494
16.4572
19.4321
24.8754
35.5735
59.8389
128.403
355.825
942.242
939.539
355.244
129.335
60.4986
35.9959
25.1662
19.6474
16.628
14.9948
14.2703
14.2703
14.9947
16.6279
19.6472
25.1659
35.9956
60.4991
129.338
355.237
939.541
936.82
354.505
130.251
61.149
36.4113
25.4527
19.8603
16.7975
15.1397
14.404
14.404
15.1398
16.7976
19.8605
25.453
36.4116
61.1483
130.247
354.511
936.819
934.145
353.722
131.099
61.7743
36.8149
25.7334
20.0701
16.9655
15.2839
14.5373
14.5373
15.2838
16.9653
20.0699
25.7329
36.8144
61.7748
131.104
353.715
934.147
931.466
352.872
131.987
62.3994
37.2125
26.0097
20.2774
17.132
15.4273
14.6702
14.6703
15.4274
17.1322
20.2777
26.0102
37.2131
62.3988
131.981
352.877
931.464
928.859
352.024
132.869
63.0126
37.5999
26.2805
20.4816
17.2969
15.5699
14.8026
14.8025
15.5698
17.2967
20.4813
26.2799
37.599
63.013
132.874
352.019
928.862
926.333
351.164
133.826
63.6387
37.9833
26.5474
20.6833
17.4603
15.7116
14.9344
14.9344
15.7117
17.4605
20.6837
26.5482
37.9844
63.6386
133.82
351.167
926.331
923.871
350.422
134.84
64.2638
38.3588
26.8093
20.882
17.622
15.8522
15.0654
15.0654
15.8521
17.6217
20.8816
26.8085
38.3575
64.2638
134.846
350.42
923.874
921.484
349.753
135.976
64.912
38.7329
27.0679
21.0783
17.7821
15.9919
15.1958
15.1959
15.992
17.7824
21.0789
27.069
38.7346
64.9126
135.97
349.755
921.481
919.155
349.293
137.189
65.565
39.1016
27.3221
21.2718
17.9404
16.1304
15.3253
15.3252
16.1303
17.9402
21.2712
27.321
39.0998
65.5644
137.196
349.293
919.158
916.897
348.942
138.533
66.246
39.4712
27.5738
21.4631
18.0973
16.2679
15.4541
15.4541
16.2681
18.0977
21.4639
27.5752
39.4736
66.2477
138.527
348.943
916.893
914.693
348.851
139.937
66.9331
39.8374
27.8218
21.6517
18.2523
16.4041
15.5817
15.5816
16.404
18.252
21.651
27.8203
39.835
66.9317
139.944
348.853
914.696
912.56
348.916
141.463
67.6495
40.2064
28.0679
21.8384
18.4059
16.5394
15.7086
15.7087
16.5396
18.4065
21.8394
28.0699
40.2097
67.6527
141.459
348.918
912.555
910.479
349.098
143.022
68.3711
40.5735
28.3111
22.0226
18.5577
16.6731
15.8342
15.8342
16.6729
18.5573
22.0217
28.3093
40.5705
68.3687
143.029
349.101
910.482
908.471
349.471
144.676
69.1203
40.9447
28.5532
22.2052
18.7081
16.806
15.9592
15.9593
16.8063
18.7088
22.2066
28.5559
40.9493
69.1255
144.675
349.481
908.464
906.513
349.99
146.342
69.873
41.315
28.793
22.3855
18.8567
16.9373
16.0827
16.0826
16.937
18.8562
22.3844
28.7907
41.3113
69.8698
146.347
349.989
906.516
904.629
350.63
148.077
70.6511
41.6902
29.0321
22.5644
19.0041
17.0677
16.2056
16.2058
17.0682
19.0051
22.5663
29.0357
41.6965
70.6591
148.081
350.645
904.62
902.794
351.376
149.806
71.4301
42.065
29.2695
22.7414
19.1497
17.1965
16.3268
16.3268
17.1962
19.1491
22.74
29.2668
42.0606
71.4263
149.811
351.379
902.795
901.035
352.209
151.58
72.2316
42.4452
29.5067
22.9171
19.2942
17.3245
16.4477
16.4479
17.3252
19.2956
22.9198
29.5117
42.4537
72.2437
151.592
352.232
901.021
899.321
353.116
153.335
73.0313
42.8251
29.7426
23.0911
19.437
17.4508
16.5666
16.5665
17.4504
19.4362
23.0895
29.7397
42.8205
73.0279
153.339
353.127
899.319
897.684
354.081
155.115
73.8509
43.2104
29.9786
23.264
19.5787
17.5764
16.6853
16.6856
17.5774
19.5808
23.2679
29.9856
43.2223
73.8687
155.138
354.116
897.665
896.089
355.096
156.864
74.6654
43.5954
30.2137
23.4356
19.7188
17.7001
16.8017
16.8017
17.6998
19.7181
23.4339
30.2106
43.5912
74.6641
156.873
355.121
896.082
894.571
356.143
158.624
75.4974
43.9856
30.4488
23.6061
19.858
17.8234
16.9184
16.9188
17.8249
19.861
23.6117
30.4589
44.0028
75.5239
158.662
356.199
894.542
893.092
357.219
160.343
76.3209
44.3755
30.6836
23.7754
19.9955
17.9447
17.0324
17.0324
17.9445
19.995
23.7741
30.681
44.3728
76.325
160.362