/*--------------------------------*- C++ -*----------------------------------*\
| =========                 |                                                 |
| \\      /  F ield         | OpenFOAM: The Open Source CFD Toolbox           |
|  \\    /   O peration     | Version:  2.1.0                                 |
|   \\  /    A nd           | Web:      www.OpenFOAM.org                      |
|    \\/     M anipulation  |                                                 |
\*---------------------------------------------------------------------------*/
FoamFile
{
    version     2.0;
    format      ascii;
    class       volScalarField;
    location    "0.41";
    object      p;
}
// * * * * * * * * * * * * * * * * * * * * * * * * * * * * * * * * * * * * * //

dimensions      [1 -1 -2 0 0 0 0];

internalField   nonuniform List<scalar> 
6400
(
99998.4
99995.7
99993.8
99992.2
99990.7
99989.3
99988
99986.6
99985.2
99983.7
99982.2
99980.6
99979
99977.3
99975.5
99973.7
99971.8
99969.8
99967.8
99965.7
99963.5
99961.2
99958.8
99956.4
99953.9
99951.3
99948.6
99945.8
99942.9
99939.9
99936.9
99933.7
99930.5
99927.1
99923.6
99920.1
99916.4
99912.6
99908.7
99904.6
99900.5
99896.2
99891.8
99887.2
99882.5
99877.6
99872.6
99867.4
99862
99856.4
99850.7
99844.8
99838.6
99832.3
99825.7
99818.9
99811.9
99804.7
99797.2
99789.5
99781.5
99773.3
99764.7
99755.9
99746.7
99737.3
99727.5
99717.3
99706.8
99695.8
99684.5
99672.7
99660.5
99647.9
99634.7
99621
99606.8
99592
99576.6
99560.5
99543.7
99526.2
99507.7
99488.2
99467.5
99445.4
99421.5
99395.6
99367.2
99336.1
99302.6
99267.6
99233.4
99201
99168.5
99135.4
99078.3
98963.1
98591.9
96983.6
99996.8
99995
99993.3
99991.8
99990.3
99989
99987.6
99986.2
99984.8
99983.3
99981.8
99980.2
99978.6
99976.9
99975.1
99973.3
99971.4
99969.4
99967.3
99965.2
99963
99960.7
99958.4
99955.9
99953.4
99950.8
99948.1
99945.3
99942.4
99939.4
99936.4
99933.2
99929.9
99926.6
99923.1
99919.5
99915.9
99912.1
99908.1
99904.1
99899.9
99895.6
99891.2
99886.6
99881.9
99877
99872
99866.8
99861.4
99855.9
99850.1
99844.2
99838
99831.7
99825.2
99818.4
99811.4
99804.2
99796.8
99789.1
99781.1
99772.8
99764.3
99755.5
99746.4
99736.9
99727.1
99717
99706.5
99695.6
99684.3
99672.6
99660.4
99647.8
99634.7
99621
99606.8
99592
99576.7
99560.6
99543.8
99526.3
99507.8
99488.4
99467.7
99445.6
99421.8
99396
99367.8
99337
99303.7
99269
99234.7
99202.6
99175
99145.9
99094.3
98993.4
98692.5
98138
99995.2
99994.2
99992.8
99991.4
99990
99988.7
99987.4
99986
99984.6
99983.1
99981.6
99980
99978.4
99976.7
99974.9
99973.1
99971.2
99969.2
99967.2
99965
99962.8
99960.5
99958.2
99955.7
99953.2
99950.6
99947.9
99945.1
99942.2
99939.3
99936.2
99933
99929.8
99926.4
99923
99919.4
99915.7
99911.9
99908
99904
99899.8
99895.5
99891.1
99886.6
99881.9
99877
99872
99866.8
99861.5
99855.9
99850.2
99844.4
99838.3
99832
99825.5
99818.8
99811.8
99804.6
99797.2
99789.6
99781.6
99773.4
99765
99756.2
99747.1
99737.7
99728
99718
99707.5
99696.7
99685.5
99673.9
99661.8
99649.3
99636.3
99622.7
99608.7
99594
99578.8
99562.8
99546.2
99528.8
99510.4
99491.1
99470.5
99448.5
99424.9
99399.3
99371.5
99341.4
99309.3
99276.3
99244.4
99216
99192.7
99164.9
99129.2
99067.1
98910.8
99000.7
99993.3
99993.3
99992.4
99991.2
99989.9
99988.7
99987.4
99986
99984.6
99983.2
99981.7
99980.1
99978.5
99976.8
99975
99973.2
99971.3
99969.4
99967.3
99965.2
99963
99960.7
99958.4
99956
99953.5
99950.9
99948.2
99945.4
99942.6
99939.6
99936.6
99933.4
99930.2
99926.8
99923.4
99919.9
99916.2
99912.4
99908.5
99904.5
99900.4
99896.1
99891.7
99887.2
99882.5
99877.7
99872.7
99867.6
99862.3
99856.8
99851.2
99845.3
99839.3
99833.1
99826.6
99819.9
99813
99805.9
99798.5
99790.9
99783.1
99774.9
99766.5
99757.8
99748.8
99739.5
99729.8
99719.8
99709.4
99698.6
99687.5
99675.9
99663.8
99651.3
99638.3
99624.8
99610.7
99596
99580.7
99564.7
99547.9
99530.4
99511.9
99492.3
99471.6
99449.4
99425.7
99400.2
99372.7
99343.4
99312.8
99282.5
99254.5
99231.2
99214.1
99201.5
99196
99200.6
99227.1
99647.4
99991.2
99992.3
99991.9
99991
99990
99988.8
99987.6
99986.3
99984.9
99983.5
99982
99980.5
99978.9
99977.2
99975.5
99973.6
99971.8
99969.8
99967.8
99965.7
99963.5
99961.3
99959
99956.6
99954.1
99951.5
99948.9
99946.1
99943.3
99940.3
99937.3
99934.2
99931
99927.7
99924.3
99920.7
99917.1
99913.3
99909.5
99905.5
99901.4
99897.1
99892.8
99888.3
99883.6
99878.8
99873.9
99868.7
99863.5
99858
99852.4
99846.6
99840.5
99834.3
99827.9
99821.2
99814.3
99807.2
99799.9
99792.3
99784.4
99776.3
99767.9
99759.1
99750.1
99740.8
99731.1
99721
99710.6
99699.8
99688.6
99677
99664.9
99652.3
99639.2
99625.6
99611.4
99596.6
99581.1
99565
99548.1
99530.3
99511.6
99491.9
99471
99448.7
99424.9
99399.6
99372.6
99344.5
99316
99289.1
99266.3
99250
99244
99254.1
99291.1
99383.2
99581.3
100157
99989.1
99991.2
99991.5
99991
99990.1
99989.1
99988
99986.8
99985.4
99984
99982.6
99981
99979.5
99977.8
99976.1
99974.3
99972.4
99970.5
99968.5
99966.4
99964.2
99962
99959.7
99957.3
99954.8
99952.3
99949.6
99946.9
99944.1
99941.1
99938.1
99935
99931.8
99928.5
99925.1
99921.6
99918
99914.2
99910.4
99906.4
99902.3
99898
99893.7
99889.1
99884.5
99879.7
99874.7
99869.6
99864.3
99858.8
99853.2
99847.3
99841.3
99835
99828.6
99821.9
99815
99807.9
99800.5
99792.9
99785
99776.8
99768.4
99759.6
99750.6
99741.2
99731.5
99721.4
99711
99700.1
99688.9
99677.2
99665.1
99652.4
99639.3
99625.6
99611.3
99596.4
99580.9
99564.6
99547.5
99529.6
99510.7
99490.7
99469.6
99447.2
99423.4
99398.3
99372
99345
99318.8
99295.7
99278.5
99270.4
99278.9
99316
99402.5
99587.3
99922
100557
99987.1
99990.2
99991.1
99990.9
99990.3
99989.5
99988.4
99987.2
99985.9
99984.6
99983.1
99981.6
99980
99978.3
99976.6
99974.8
99973
99971
99969
99966.9
99964.8
99962.5
99960.2
99957.8
99955.3
99952.8
99950.1
99947.4
99944.6
99941.6
99938.6
99935.5
99932.3
99929
99925.6
99922
99918.4
99914.6
99910.7
99906.7
99902.6
99898.4
99894
99889.4
99884.8
99879.9
99874.9
99869.8
99864.5
99859
99853.3
99847.5
99841.4
99835.2
99828.7
99822
99815.1
99807.9
99800.5
99792.9
99785
99776.8
99768.4
99759.7
99750.6
99741.2
99731.5
99721.4
99711
99700.1
99688.9
99677.2
99665
99652.3
99639.2
99625.4
99611.1
99596.1
99580.4
99564
99546.8
99528.7
99509.6
99489.4
99468
99445.5
99421.6
99396.7
99371
99345.3
99321.2
99301.5
99289.7
99290.2
99313.8
99378.4
99514.4
99783.4
100215
100861
99985.5
99989.4
99990.6
99990.8
99990.4
99989.6
99988.6
99987.5
99986.2
99984.8
99983.4
99981.9
99980.3
99978.6
99976.9
99975.1
99973.2
99971.3
99969.3
99967.2
99965
99962.8
99960.4
99958
99955.5
99953
99950.3
99947.5
99944.7
99941.8
99938.7
99935.6
99932.4
99929
99925.6
99922
99918.4
99914.6
99910.7
99906.7
99902.5
99898.3
99893.9
99889.3
99884.6
99879.8
99874.8
99869.6
99864.3
99858.8
99853.1
99847.3
99841.2
99835
99828.5
99821.8
99814.9
99807.8
99800.4
99792.8
99784.9
99776.7
99768.3
99759.6
99750.5
99741.2
99731.5
99721.4
99711
99700.1
99688.9
99677.2
99665
99652.3
99639.1
99625.3
99610.9
99595.8
99580.1
99563.5
99546.1
99527.8
99508.5
99488.1
99466.5
99443.7
99419.8
99395.1
99369.8
99345.2
99322.8
99305.8
99298.6
99306.8
99343.7
99432.4
99611.1
99947.2
100442
101077
99984.5
99988.7
99990.2
99990.6
99990.3
99989.6
99988.7
99987.5
99986.3
99984.9
99983.5
99981.9
99980.3
99978.7
99976.9
99975.1
99973.2
99971.3
99969.2
99967.1
99965
99962.7
99960.4
99957.9
99955.4
99952.8
99950.2
99947.4
99944.5
99941.6
99938.5
99935.4
99932.1
99928.8
99925.3
99921.8
99918.1
99914.3
99910.4
99906.4
99902.2
99898
99893.6
99889
99884.3
99879.5
99874.5
99869.3
99864
99858.5
99852.9
99847
99841
99834.8
99828.3
99821.6
99814.8
99807.6
99800.3
99792.7
99784.8
99776.7
99768.3
99759.6
99750.6
99741.2
99731.5
99721.5
99711.1
99700.2
99689
99677.3
99665.1
99652.4
99639.1
99625.3
99610.8
99595.7
99579.8
99563.1
99545.5
99527
99507.5
99486.9
99465.1
99442.1
99418.1
99393.4
99368.5
99344.5
99323.4
99308.3
99304.1
99317.9
99364.3
99470.7
99680.2
100062
100592
101214
99983.9
99988.2
99989.9
99990.4
99990.2
99989.6
99988.6
99987.5
99986.3
99984.9
99983.4
99981.9
99980.3
99978.6
99976.8
99975
99973.1
99971.2
99969.1
99967
99964.8
99962.5
99960.2
99957.8
99955.3
99952.7
99950
99947.2
99944.3
99941.4
99938.3
99935.2
99931.9
99928.6
99925.2
99921.6
99917.9
99914.1
99910.3
99906.2
99902.1
99897.8
99893.4
99888.9
99884.2
99879.4
99874.4
99869.2
99863.9
99858.5
99852.8
99847
99840.9
99834.7
99828.3
99821.6
99814.7
99807.6
99800.3
99792.7
99784.9
99776.8
99768.4
99759.7
99750.7
99741.4
99731.7
99721.7
99711.3
99700.4
99689.2
99677.5
99665.3
99652.6
99639.3
99625.4
99610.9
99595.7
99579.7
99562.9
99545.2
99526.5
99506.7
99485.9
99463.9
99440.7
99416.4
99391.7
99366.9
99343.4
99322.9
99308.7
99305.8
99322.7
99374.6
99489.5
99714.4
100119
100666
101281
99983.7
99988.2
99989.9
99990.4
99990.2
99989.6
99988.7
99987.6
99986.3
99985
99983.5
99982
99980.4
99978.7
99976.9
99975.1
99973.2
99971.2
99969.2
99967.1
99964.9
99962.6
99960.3
99957.9
99955.3
99952.8
99950.1
99947.3
99944.4
99941.5
99938.4
99935.3
99932
99928.7
99925.2
99921.7
99918
99914.2
99910.3
99906.3
99902.2
99897.9
99893.5
99888.9
99884.3
99879.4
99874.4
99869.3
99864
99858.5
99852.9
99847.1
99841
99834.8
99828.4
99821.8
99814.9
99807.8
99800.6
99793
99785.1
99777
99768.6
99759.9
99750.9
99741.6
99732
99722
99711.6
99700.8
99689.5
99677.9
99665.7
99652.9
99639.6
99625.7
99611.2
99595.9
99579.8
99562.9
99545
99526.2
99506.2
99485.2
99463
99439.6
99415.2
99390.1
99365.2
99341.6
99321.1
99306.9
99304
99320.9
99372.9
99487.7
99711.8
100115
100662
101278
99984
99988.5
99990.1
99990.5
99990.3
99989.6
99988.7
99987.6
99986.4
99985
99983.6
99982
99980.4
99978.8
99977
99975.2
99973.4
99971.4
99969.4
99967.3
99965.1
99962.9
99960.5
99958.1
99955.6
99953
99950.4
99947.6
99944.7
99941.8
99938.7
99935.6
99932.4
99929
99925.6
99922
99918.3
99914.5
99910.6
99906.6
99902.5
99898.2
99893.8
99889.2
99884.5
99879.7
99874.7
99869.6
99864.3
99858.8
99853.1
99847.3
99841.3
99835.1
99828.6
99822
99815.2
99808.1
99800.8
99793.2
99785.4
99777.3
99768.9
99760.3
99751.3
99742
99732.4
99722.4
99712
99701.2
99690
99678.3
99666.1
99653.3
99640
99626.1
99611.5
99596.1
99579.9
99562.9
99544.9
99525.9
99505.7
99484.5
99462
99438.3
99413.6
99388.2
99362.8
99338.7
99317.7
99302.4
99297.7
99311.7
99358.6
99463.6
99670.6
100049
100577
101200
99985
99989.1
99990.4
99990.7
99990.3
99989.6
99988.6
99987.5
99986.2
99984.9
99983.4
99981.9
99980.3
99978.7
99977
99975.2
99973.3
99971.4
99969.4
99967.3
99965.1
99962.9
99960.6
99958.2
99955.7
99953.1
99950.5
99947.7
99944.9
99941.9
99938.9
99935.8
99932.6
99929.2
99925.8
99922.2
99918.6
99914.8
99910.9
99906.9
99902.7
99898.5
99894.1
99889.5
99884.8
99880
99875
99869.9
99864.5
99859.1
99853.4
99847.6
99841.6
99835.3
99828.9
99822.3
99815.5
99808.4
99801.1
99793.5
99785.7
99777.6
99769.3
99760.6
99751.6
99742.3
99732.7
99722.7
99712.4
99701.6
99690.4
99678.7
99666.5
99653.7
99640.4
99626.4
99611.8
99596.3
99580.1
99562.9
99544.8
99525.6
99505.3
99483.9
99461.1
99437.1
99412
99386.1
99360.1
99335.2
99313.1
99296
99288
99296.6
99333.5
99420.3
99595.2
99925.5
100417
101053
99986.5
99989.9
99990.8
99990.7
99990.2
99989.3
99988.3
99987.1
99985.9
99984.5
99983.1
99981.6
99980
99978.3
99976.6
99974.8
99973
99971.1
99969.1
99967
99964.8
99962.6
99960.3
99957.9
99955.4
99952.9
99950.2
99947.5
99944.7
99941.8
99938.8
99935.6
99932.4
99929.1
99925.7
99922.1
99918.5
99914.7
99910.8
99906.8
99902.7
99898.5
99894.1
99889.5
99884.9
99880
99875.1
99869.9
99864.7
99859.2
99853.6
99847.7
99841.7
99835.5
99829.1
99822.5
99815.7
99808.6
99801.3
99793.8
99786
99777.9
99769.5
99760.9
99752
99742.7
99733.1
99723.1
99712.8
99702
99690.8
99679.1
99666.9
99654.2
99640.9
99626.9
99612.2
99596.7
99580.4
99563.2
99545
99525.7
99505.2
99483.5
99460.5
99436.2
99410.7
99384.2
99357.4
99331.4
99307.7
99288.1
99275.9
99277.1
99300.5
99362.8
99493.9
99755.5
100182
100827
99988.5
99990.8
99991.2
99990.7
99989.9
99989
99987.8
99986.6
99985.3
99983.9
99982.5
99981
99979.4
99977.7
99976
99974.2
99972.4
99970.4
99968.4
99966.4
99964.2
99962
99959.7
99957.3
99954.8
99952.2
99949.6
99946.9
99944
99941.1
99938.1
99935
99931.8
99928.5
99925
99921.5
99917.9
99914.1
99910.3
99906.3
99902.2
99897.9
99893.6
99889.1
99884.4
99879.6
99874.7
99869.6
99864.3
99858.9
99853.3
99847.5
99841.5
99835.3
99829
99822.4
99815.6
99808.6
99801.3
99793.8
99786.1
99778
99769.7
99761.1
99752.2
99743
99733.4
99723.4
99713.1
99702.4
99691.2
99679.6
99667.4
99654.7
99641.4
99627.4
99612.7
99597.2
99580.9
99563.6
99545.3
99525.9
99505.3
99483.4
99460.2
99435.6
99409.7
99382.6
99354.8
99327.3
99301.6
99279.2
99262.7
99255.5
99263.8
99298.4
99379.6
99556
99882.6
100515
99990.6
99991.8
99991.6
99990.7
99989.7
99988.6
99987.4
99986.1
99984.8
99983.4
99981.9
99980.4
99978.8
99977.1
99975.4
99973.6
99971.7
99969.7
99967.7
99965.6
99963.5
99961.2
99958.9
99956.5
99954
99951.4
99948.8
99946
99943.2
99940.3
99937.2
99934.1
99930.9
99927.6
99924.1
99920.6
99916.9
99913.2
99909.3
99905.3
99901.2
99897
99892.6
99888.1
99883.4
99878.6
99873.7
99868.6
99863.4
99858
99852.4
99846.6
99840.7
99834.5
99828.2
99821.7
99814.9
99807.9
99800.7
99793.2
99785.5
99777.5
99769.3
99760.7
99751.9
99742.7
99733.2
99723.3
99713
99702.3
99691.2
99679.6
99667.5
99654.8
99641.5
99627.6
99612.9
99597.4
99581
99563.8
99545.4
99526
99505.3
99483.3
99459.9
99435.1
99408.8
99381.1
99352.4
99323.4
99295.4
99270.1
99249.2
99234.4
99228.3
99236
99267.7
99351.1
99539
100108
99992.7
99992.8
99992
99990.9
99989.7
99988.4
99987.2
99985.9
99984.5
99983.1
99981.6
99980
99978.4
99976.7
99975
99973.1
99971.3
99969.3
99967.3
99965.2
99963
99960.7
99958.4
99955.9
99953.4
99950.8
99948.1
99945.4
99942.5
99939.6
99936.5
99933.3
99930.1
99926.7
99923.3
99919.7
99916.1
99912.3
99908.4
99904.4
99900.2
99895.9
99891.6
99887
99882.3
99877.5
99872.6
99867.5
99862.2
99856.7
99851.1
99845.3
99839.4
99833.2
99826.9
99820.4
99813.6
99806.6
99799.4
99791.9
99784.2
99776.2
99768
99759.4
99750.6
99741.4
99731.9
99722.1
99711.9
99701.2
99690.2
99678.6
99666.6
99654
99640.7
99626.9
99612.2
99596.8
99580.5
99563.2
99544.9
99525.5
99504.8
99482.7
99459.2
99434.2
99407.6
99379.4
99349.8
99319.5
99289.5
99261.4
99236.7
99216.3
99198.7
99184.1
99173.6
99169.9
99184.5
99591.3
99994.7
99993.8
99992.5
99991.1
99989.8
99988.5
99987.2
99985.8
99984.4
99983
99981.5
99979.9
99978.3
99976.6
99974.9
99973
99971.1
99969.2
99967.1
99965
99962.8
99960.5
99958.2
99955.7
99953.2
99950.6
99947.9
99945.1
99942.2
99939.2
99936.2
99933
99929.7
99926.4
99922.9
99919.3
99915.6
99911.8
99907.9
99903.9
99899.7
99895.4
99891
99886.4
99881.7
99876.9
99871.9
99866.7
99861.4
99856
99850.3
99844.5
99838.5
99832.3
99825.9
99819.3
99812.4
99805.4
99798.1
99790.6
99782.9
99774.9
99766.6
99758
99749.1
99739.9
99730.3
99720.4
99710.2
99699.5
99688.4
99676.8
99664.7
99652.1
99638.8
99624.9
99610.3
99594.8
99578.5
99561.2
99542.9
99523.5
99502.7
99480.7
99457.1
99432
99405.2
99376.7
99346.5
99315.2
99283.8
99253.7
99226.4
99203
99178.4
99148.7
99108.5
99038.7
98869.8
98936.7
99996.2
99994.6
99993
99991.5
99990.1
99988.7
99987.4
99986
99984.6
99983.2
99981.7
99980.1
99978.5
99976.8
99975.1
99973.2
99971.3
99969.4
99967.3
99965.2
99963
99960.7
99958.4
99955.9
99953.4
99950.8
99948.1
99945.3
99942.4
99939.4
99936.4
99933.2
99929.9
99926.6
99923.1
99919.5
99915.8
99912
99908.1
99904
99899.9
99895.6
99891.1
99886.5
99881.8
99877
99872
99866.8
99861.5
99856
99850.3
99844.5
99838.4
99832.2
99825.7
99819.1
99812.2
99805.1
99797.8
99790.3
99782.5
99774.4
99766.1
99757.5
99748.5
99739.3
99729.7
99719.7
99709.4
99698.7
99687.5
99675.8
99663.7
99650.9
99637.6
99623.5
99608.8
99593.2
99576.7
99559.3
99540.8
99521.1
99500.2
99477.8
99454
99428.6
99401.4
99372.4
99341.6
99309.3
99276.5
99244.5
99215
99188.7
99164.2
99130.7
99074.7
98966.2
98653
98060.4
99997.9
99995.3
99993.4
99991.9
99990.5
99989.1
99987.8
99986.4
99985
99983.6
99982.1
99980.5
99978.9
99977.2
99975.5
99973.7
99971.8
99969.8
99967.8
99965.7
99963.5
99961.2
99958.9
99956.4
99953.9
99951.3
99948.6
99945.8
99942.9
99940
99936.9
99933.7
99930.5
99927.1
99923.6
99920.1
99916.4
99912.6
99908.6
99904.6
99900.4
99896.1
99891.7
99887.1
99882.4
99877.6
99872.6
99867.4
99862.1
99856.6
99851
99845.1
99839.1
99832.9
99826.4
99819.8
99812.9
99805.8
99798.5
99791
99783.2
99775.1
99766.7
99758
99749.1
99739.8
99730.2
99720.3
99710
99699.2
99688
99676.4
99664.2
99651.4
99638
99624
99609.2
99593.6
99577.1
99559.6
99541.1
99521.4
99500.4
99478
99454.2
99428.7
99401.4
99372.2
99341.2
99308.7
99275.8
99244
99214.3
99187.3
99152.6
99114.4
99054.2
98934.1
98552.4
96886.7
100563
101839
102382
102691
102903
103062
103186
103287
103369
103436
103491
103536
103573
103602
103625
103641
103652
103658
103659
103656
100517
101544
102177
102577
102844
103036
103181
103294
103383
103455
103514
103560
103597
103626
103647
103662
103671
103675
103674
103666
100805
101575
102120
102517
102804
103014
103173
103296
103392
103468
103529
103576
103613
103641
103662
103675
103683
103685
103683
103672
101081
101708
102170
102530
102807
103019
103183
103310
103410
103488
103549
103597
103633
103659
103678
103689
103695
103696
103693
103677
101318
101849
102253
102579
102839
103044
103206
103333
103434
103512
103572
103619
103653
103677
103693
103703
103706
103705
103700
103680
101517
101981
102343
102642
102885
103081
103237
103362
103461
103538
103597
103641
103673
103695
103709
103715
103717
103714
103706
103682
101678
102094
102427
102704
102933
103120
103272
103393
103489
103564
103621
103664
103693
103713
103723
103727
103726
103722
103711
103683
101800
102182
102494
102757
102976
103156
103303
103421
103516
103589
103645
103685
103712
103729
103736
103738
103735
103728
103714
103685
101881
102242
102543
102796
103009
103185
103330
103446
103539
103611
103665
103704
103729
103743
103748
103747
103742
103733
103716
103687
101925
102277
102572
102821
103031
103205
103349
103464
103556
103627
103680
103718
103741
103753
103756
103754
103747
103737
103717
103692
101922
102275
102569
102819
103029
103203
103346
103462
103554
103625
103678
103716
103740
103752
103755
103753
103746
103736
103718
103691
101870
102232
102533
102787
103001
103177
103322
103439
103533
103606
103660
103700
103725
103740
103746
103745
103740
103731
103716
103690
101781
102165
102478
102743
102963
103144
103292
103411
103507
103581
103638
103679
103708
103725
103733
103735
103732
103726
103712
103689
101652
102070
102404
102684
102915
103104
103257
103380
103478
103554
103613
103657
103688
103708
103720
103724
103724
103719
103709
103686
101484
101951
102316
102617
102862
103061
103220
103347
103448
103527
103587
103633
103667
103690
103705
103712
103714
103711
103704
103682
101279
101814
102221
102550
102813
103022
103187
103317
103419
103499
103562
103610
103646
103671
103689
103699
103703
103703
103698
103680
101037
101668
102133
102498
102780
102995
103162
103292
103394
103475
103538
103587
103625
103653
103672
103685
103692
103693
103690
103676
100755
101530
102081
102484
102775
102989
103151
103277
103376
103454
103517
103566
103605
103634
103656
103671
103679
103682
103681
103672
100462
101496
102138
102543
102815
103011
103159
103275
103367
103441
103501
103550
103588
103618
103641
103657
103667
103672
103671
103665
100506
101794
102344
102659
102875
103037
103165
103268
103352
103421
103478
103525
103564
103594
103618
103636
103648
103654
103656
103653
103498
103496
103495
103494
103494
103493
103493
103492
103492
103492
103492
103492
103492
103493
103493
103494
103494
103495
103496
103498
103495
103493
103492
103492
103492
103492
103491
103491
103491
103491
103491
103491
103491
103491
103492
103492
103492
103492
103493
103495
103494
103492
103492
103492
103492
103492
103492
103492
103492
103492
103492
103492
103492
103492
103492
103492
103492
103492
103492
103494
103494
103493
103492
103492
103492
103492
103492
103492
103492
103492
103492
103492
103492
103492
103492
103492
103492
103492
103493
103494
103494
103492
103492
103492
103492
103492
103492
103492
103492
103492
103492
103492
103492
103492
103492
103492
103492
103492
103492
103494
103493
103492
103491
103491
103491
103491
103491
103491
103491
103491
103491
103491
103491
103491
103491
103491
103491
103491
103492
103493
103493
103491
103491
103491
103491
103491
103490
103490
103490
103490
103490
103490
103490
103490
103491
103491
103491
103491
103491
103493
103492
103490
103490
103490
103490
103490
103490
103490
103490
103490
103490
103490
103490
103490
103490
103490
103490
103490
103490
103492
103491
103490
103490
103489
103489
103489
103489
103489
103489
103489
103489
103489
103489
103489
103489
103489
103489
103490
103490
103491
103491
103489
103489
103489
103489
103489
103489
103489
103489
103489
103489
103489
103489
103489
103489
103489
103489
103489
103489
103491
103490
103488
103488
103488
103488
103488
103488
103488
103488
103488
103488
103488
103488
103488
103488
103488
103488
103488
103488
103490
103489
103488
103487
103487
103487
103487
103487
103487
103487
103487
103487
103487
103487
103487
103487
103487
103487
103487
103488
103489
103488
103487
103487
103487
103487
103486
103486
103486
103486
103486
103486
103486
103486
103486
103486
103487
103487
103487
103487
103488
103488
103486
103486
103486
103486
103486
103486
103486
103486
103486
103486
103486
103486
103486
103486
103486
103486
103486
103486
103488
103487
103485
103485
103485
103485
103485
103485
103485
103485
103485
103485
103485
103485
103485
103485
103485
103485
103485
103485
103487
103486
103485
103484
103484
103484
103484
103484
103484
103484
103484
103484
103484
103484
103484
103484
103484
103484
103484
103485
103486
103485
103484
103484
103484
103484
103484
103483
103483
103483
103483
103483
103483
103483
103483
103484
103484
103484
103484
103484
103485
103485
103483
103483
103483
103483
103483
103483
103483
103483
103483
103483
103483
103483
103483
103483
103483
103483
103483
103483
103485
103484
103482
103482
103482
103482
103482
103482
103482
103482
103482
103482
103482
103482
103482
103482
103482
103482
103482
103482
103484
103483
103482
103481
103481
103481
103481
103481
103481
103481
103481
103481
103481
103481
103481
103481
103481
103481
103481
103482
103483
103482
103481
103481
103481
103480
103480
103480
103480
103480
103480
103480
103480
103480
103480
103480
103480
103481
103481
103481
103482
103481
103480
103480
103480
103480
103480
103480
103480
103479
103479
103479
103479
103480
103480
103480
103480
103480
103480
103480
103481
103480
103479
103479
103479
103479
103479
103479
103479
103479
103479
103479
103479
103479
103479
103479
103479
103479
103479
103479
103480
103480
103478
103478
103478
103478
103478
103478
103478
103478
103478
103478
103478
103478
103478
103478
103478
103478
103478
103478
103480
103479
103478
103477
103477
103477
103477
103477
103477
103477
103477
103477
103477
103477
103477
103477
103477
103477
103477
103478
103479
103478
103477
103477
103477
103476
103476
103476
103476
103476
103476
103476
103476
103476
103476
103476
103476
103477
103477
103477
103478
103477
103476
103476
103476
103476
103476
103476
103476
103475
103475
103475
103475
103476
103476
103476
103476
103476
103476
103476
103477
103476
103475
103475
103475
103475
103475
103475
103475
103475
103475
103475
103475
103475
103475
103475
103475
103475
103475
103475
103476
103475
103474
103474
103474
103474
103474
103474
103474
103474
103474
103474
103474
103474
103474
103474
103474
103474
103474
103474
103475
103474
103473
103473
103473
103473
103473
103473
103473
103473
103473
103473
103473
103473
103473
103473
103473
103473
103473
103473
103474
103474
103473
103473
103472
103472
103472
103472
103472
103472
103472
103472
103472
103472
103472
103472
103472
103472
103473
103473
103474
103473
103472
103472
103472
103472
103472
103472
103472
103471
103471
103471
103471
103472
103472
103472
103472
103472
103472
103472
103473
103472
103471
103471
103471
103471
103471
103471
103471
103471
103471
103471
103471
103471
103471
103471
103471
103471
103471
103471
103472
103471
103470
103470
103470
103470
103470
103470
103470
103470
103470
103470
103470
103470
103470
103470
103470
103470
103470
103470
103471
103470
103469
103469
103469
103469
103469
103469
103469
103469
103469
103469
103469
103469
103469
103469
103469
103469
103469
103469
103470
103469
103469
103469
103469
103468
103468
103468
103468
103468
103468
103468
103468
103468
103468
103468
103468
103469
103469
103469
103469
103469
103468
103468
103468
103468
103468
103468
103468
103468
103468
103468
103468
103468
103468
103468
103468
103468
103468
103468
103469
103468
103467
103467
103467
103467
103467
103467
103467
103467
103467
103467
103467
103467
103467
103467
103467
103467
103467
103467
103468
103467
103466
103466
103466
103466
103466
103466
103466
103466
103466
103466
103466
103466
103466
103466
103466
103466
103466
103466
103467
103466
103466
103465
103465
103465
103465
103465
103465
103465
103465
103465
103465
103465
103465
103465
103465
103465
103465
103466
103466
103465
103465
103465
103465
103465
103465
103465
103465
103464
103464
103464
103464
103465
103465
103465
103465
103465
103465
103465
103465
103465
103464
103464
103464
103464
103464
103464
103464
103464
103464
103464
103464
103464
103464
103464
103464
103464
103464
103464
103465
103464
103463
103463
103463
103463
103463
103463
103463
103463
103463
103463
103463
103463
103463
103463
103463
103463
103463
103463
103464
103463
103463
103462
103462
103462
103462
103462
103462
103462
103462
103462
103462
103462
103462
103462
103462
103462
103462
103463
103463
103462
103462
103462
103462
103462
103462
103462
103462
103462
103461
103461
103462
103462
103462
103462
103462
103462
103462
103462
103462
103461
103461
103461
103461
103461
103461
103461
103461
103461
103461
103461
103461
103461
103461
103461
103461
103461
103461
103461
103461
103461
103460
103460
103460
103460
103460
103460
103460
103460
103460
103460
103460
103460
103460
103460
103460
103460
103460
103460
103461
103460
103460
103459
103459
103459
103459
103459
103459
103459
103459
103459
103459
103459
103459
103459
103459
103459
103459
103460
103460
103459
103459
103459
103459
103459
103459
103459
103459
103459
103459
103459
103459
103459
103459
103459
103459
103459
103459
103459
103459
103458
103458
103458
103458
103458
103458
103458
103458
103458
103458
103458
103458
103458
103458
103458
103458
103458
103458
103458
103458
103458
103457
103457
103457
103457
103457
103457
103457
103457
103457
103457
103457
103457
103457
103457
103457
103457
103457
103457
103458
103457
103457
103457
103457
103457
103457
103456
103456
103456
103456
103456
103456
103456
103456
103457
103457
103457
103457
103457
103457
103456
103456
103456
103456
103456
103456
103456
103456
103456
103456
103456
103456
103456
103456
103456
103456
103456
103456
103456
103456
103455
103455
103455
103455
103455
103455
103455
103455
103455
103455
103455
103455
103455
103455
103455
103455
103455
103455
103455
103455
103455
103455
103455
103454
103454
103454
103454
103454
103454
103454
103454
103454
103454
103454
103454
103454
103454
103455
103455
103455
103454
103454
103454
103454
103454
103454
103454
103454
103454
103454
103454
103454
103454
103454
103454
103454
103454
103454
103454
103454
103453
103453
103453
103453
103453
103453
103453
103453
103453
103453
103453
103453
103453
103453
103453
103453
103453
103453
103453
103453
103453
103453
103452
103452
103452
103452
103452
103452
103452
103452
103452
103452
103452
103452
103452
103452
103452
103452
103453
103453
103452
103452
103452
103452
103452
103452
103452
103452
103452
103452
103452
103452
103452
103452
103452
103452
103452
103452
103452
103452
103451
103451
103451
103451
103451
103451
103451
103451
103451
103451
103451
103451
103451
103451
103451
103451
103451
103451
103451
103451
103451
103451
103450
103450
103450
103450
103450
103450
103450
103450
103450
103450
103450
103450
103450
103450
103450
103450
103451
103451
103450
103450
103450
103450
103450
103450
103450
103450
103450
103450
103450
103450
103450
103450
103450
103450
103450
103450
103450
103450
103449
103449
103449
103449
103449
103449
103449
103449
103449
103449
103449
103449
103449
103449
103449
103449
103449
103449
103449
103449
103449
103449
103448
103448
103448
103448
103448
103448
103448
103448
103448
103448
103448
103448
103448
103448
103448
103448
103449
103449
103448
103448
103448
103448
103448
103448
103448
103448
103448
103448
103448
103448
103448
103448
103448
103448
103448
103448
103448
103448
103447
103447
103447
103447
103447
103447
103447
103447
103447
103447
103447
103447
103447
103447
103447
103447
103447
103447
103447
103447
103447
103447
103446
103446
103446
103446
103446
103446
103446
103446
103446
103446
103446
103446
103446
103446
103446
103447
103447
103447
103446
103446
103446
103446
103446
103446
103446
103446
103446
103446
103446
103446
103446
103446
103446
103446
103446
103446
103446
103446
103445
103445
103445
103445
103445
103445
103445
103445
103445
103445
103445
103445
103445
103445
103445
103445
103445
103445
103445
103445
103445
103445
103444
103444
103444
103444
103444
103444
103444
103444
103444
103444
103444
103445
103445
103445
103445
103445
103445
103445
103444
103444
103444
103444
103444
103444
103444
103444
103444
103444
103444
103444
103444
103444
103444
103444
103444
103444
103444
103444
103443
103443
103443
103443
103443
103443
103443
103443
103443
103443
103443
103443
103443
103443
103443
103443
103443
103444
103444
103444
103442
103442
103442
103442
103442
103442
103442
103442
103442
103442
103443
103443
103443
103443
103443
103443
103443
103443
103443
103443
103442
103442
103442
103442
103442
103442
103442
103442
103442
103442
103442
103442
103442
103442
103442
103442
103442
103442
103442
103442
103441
103441
103441
103441
103441
103441
103441
103441
103441
103441
103441
103441
103441
103442
103442
103442
103442
103442
103442
103442
103440
103440
103440
103440
103440
103440
103440
103440
103441
103441
103441
103441
103441
103441
103441
103441
103441
103441
103442
103442
103439
103439
103439
103439
103439
103440
103440
103440
103440
103440
103440
103440
103440
103441
103441
103441
103441
103441
103441