/*--------------------------------*- C++ -*----------------------------------*\
| =========                 |                                                 |
| \\      /  F ield         | OpenFOAM: The Open Source CFD Toolbox           |
|  \\    /   O peration     | Version:  2.1.0                                 |
|   \\  /    A nd           | Web:      www.OpenFOAM.org                      |
|    \\/     M anipulation  |                                                 |
\*---------------------------------------------------------------------------*/
FoamFile
{
    version     2.0;
    format      ascii;
    class       surfaceScalarField;
    location    "0.41";
    object      phi;
}
// * * * * * * * * * * * * * * * * * * * * * * * * * * * * * * * * * * * * * //

dimensions      [0 3 -1 0 0 0 0];

internalField   nonuniform List<scalar> 
12460
(
-2.60296e-05
-4.11788e-09
-2.59931e-05
-4.05452e-08
-2.59336e-05
-6.33687e-08
-2.58623e-05
-7.49865e-08
-2.57841e-05
-8.1876e-08
-2.57011e-05
-8.6507e-08
-2.56147e-05
-8.98458e-08
-2.55255e-05
-9.24677e-08
-2.5434e-05
-9.46783e-08
-2.53404e-05
-9.66678e-08
-2.52448e-05
-9.85412e-08
-2.51474e-05
-1.00362e-07
-2.5048e-05
-1.02169e-07
-2.49467e-05
-1.03978e-07
-2.48435e-05
-1.05808e-07
-2.47383e-05
-1.0766e-07
-2.46312e-05
-1.09546e-07
-2.45221e-05
-1.11461e-07
-2.44109e-05
-1.13412e-07
-2.42976e-05
-1.1539e-07
-2.41823e-05
-1.174e-07
-2.40649e-05
-1.19436e-07
-2.39453e-05
-1.21522e-07
-2.38235e-05
-1.23636e-07
-2.36995e-05
-1.25766e-07
-2.35732e-05
-1.27975e-07
-2.34445e-05
-1.30315e-07
-2.33134e-05
-1.32732e-07
-2.31796e-05
-1.35225e-07
-2.30433e-05
-1.3779e-07
-2.29042e-05
-1.4044e-07
-2.27623e-05
-1.43176e-07
-2.26176e-05
-1.4601e-07
-2.24698e-05
-1.48946e-07
-2.23189e-05
-1.51993e-07
-2.21649e-05
-1.55152e-07
-2.20075e-05
-1.58431e-07
-2.18466e-05
-1.61836e-07
-2.16822e-05
-1.65376e-07
-2.1514e-05
-1.69067e-07
-2.13419e-05
-1.72925e-07
-2.11657e-05
-1.76951e-07
-2.09853e-05
-1.81152e-07
-2.08005e-05
-1.85537e-07
-2.06111e-05
-1.90109e-07
-2.04168e-05
-1.94871e-07
-2.02176e-05
-1.99823e-07
-2.00132e-05
-2.04958e-07
-1.98034e-05
-2.10265e-07
-1.95882e-05
-2.15764e-07
-1.93673e-05
-2.2135e-07
-1.91407e-05
-2.26993e-07
-1.89081e-05
-2.3301e-07
-1.8669e-05
-2.39468e-07
-1.84232e-05
-2.4621e-07
-1.81705e-05
-2.53031e-07
-1.79111e-05
-2.59657e-07
-1.76453e-05
-2.66079e-07
-1.73731e-05
-2.72464e-07
-1.70944e-05
-2.78948e-07
-1.6809e-05
-2.85589e-07
-1.65168e-05
-2.92381e-07
-1.62176e-05
-2.99387e-07
-1.59112e-05
-3.06662e-07
-1.55971e-05
-3.14217e-07
-1.52751e-05
-3.221e-07
-1.49449e-05
-3.30335e-07
-1.46061e-05
-3.38987e-07
-1.42581e-05
-3.48088e-07
-1.39005e-05
-3.57671e-07
-1.35328e-05
-3.67765e-07
-1.31544e-05
-3.78421e-07
-1.27648e-05
-3.89678e-07
-1.23632e-05
-4.01603e-07
-1.1949e-05
-4.14271e-07
-1.15212e-05
-4.27781e-07
-1.1079e-05
-4.42266e-07
-1.06211e-05
-4.57884e-07
-1.01462e-05
-4.74858e-07
-9.65271e-06
-4.93524e-07
-9.13839e-06
-5.14296e-07
-8.60067e-06
-5.37687e-07
-8.03627e-06
-5.64359e-07
-7.44118e-06
-5.95037e-07
-6.81085e-06
-6.30272e-07
-6.14051e-06
-6.70263e-07
-5.42577e-06
-7.14639e-07
-4.66388e-06
-7.61775e-07
-3.85611e-06
-8.0763e-07
-3.01249e-06
-8.43439e-07
-2.16088e-06
-8.51377e-07
-1.36429e-06
-7.96325e-07
-7.26265e-07
-6.37726e-07
-3.49988e-07
-3.76095e-07
-2.76351e-07
-7.39797e-08
-5.30555e-07
2.53318e-07
-1.42383e-06
8.92484e-07
-3.71744e-06
2.29351e-06
-9.2885e-06
5.57106e-06
1.54965e-05
-2.4785e-05
-3.13595e-05
-2.36047e-08
-3.13108e-05
-9.35447e-08
-3.12473e-05
-1.31207e-07
-3.11746e-05
-1.51784e-07
-3.10961e-05
-1.6441e-07
-3.10136e-05
-1.7294e-07
-3.09282e-05
-1.79101e-07
-3.08405e-05
-1.8393e-07
-3.07508e-05
-1.88001e-07
-3.06593e-05
-1.91658e-07
-3.05661e-05
-1.95106e-07
-3.04713e-05
-1.98453e-07
-3.03749e-05
-2.01782e-07
-3.02769e-05
-2.05117e-07
-3.01772e-05
-2.08502e-07
-3.00758e-05
-2.11933e-07
-2.99728e-05
-2.15437e-07
-2.98679e-05
-2.19002e-07
-2.97613e-05
-2.22646e-07
-2.96529e-05
-2.26348e-07
-2.95427e-05
-2.30117e-07
-2.94306e-05
-2.33932e-07
-2.93166e-05
-2.37828e-07
-2.92006e-05
-2.41773e-07
-2.90829e-05
-2.45683e-07
-2.89632e-05
-2.49679e-07
-2.88416e-05
-2.53891e-07
-2.87181e-05
-2.58196e-07
-2.85925e-05
-2.62606e-07
-2.84649e-05
-2.67125e-07
-2.83353e-05
-2.71772e-07
-2.82036e-05
-2.76551e-07
-2.80696e-05
-2.81481e-07
-2.79335e-05
-2.86567e-07
-2.77951e-05
-2.91825e-07
-2.76544e-05
-2.97258e-07
-2.75112e-05
-3.0288e-07
-2.73656e-05
-3.08706e-07
-2.72174e-05
-3.14745e-07
-2.70667e-05
-3.20999e-07
-2.69132e-05
-3.27506e-07
-2.67569e-05
-3.34274e-07
-2.65977e-05
-3.41315e-07
-2.64355e-05
-3.4865e-07
-2.62702e-05
-3.5629e-07
-2.61017e-05
-3.64249e-07
-2.59298e-05
-3.72541e-07
-2.57544e-05
-3.81174e-07
-2.55752e-05
-3.90143e-07
-2.53922e-05
-3.99486e-07
-2.52051e-05
-4.09112e-07
-2.50139e-05
-4.1879e-07
-2.4819e-05
-4.28508e-07
-2.46207e-05
-4.38305e-07
-2.44193e-05
-4.48196e-07
-2.42146e-05
-4.58202e-07
-2.40065e-05
-4.68231e-07
-2.37949e-05
-4.78207e-07
-2.35796e-05
-4.88191e-07
-2.33607e-05
-4.98307e-07
-2.3138e-05
-5.08623e-07
-2.29117e-05
-5.19161e-07
-2.26815e-05
-5.29966e-07
-2.24474e-05
-5.41079e-07
-2.22094e-05
-5.52535e-07
-2.19675e-05
-5.64388e-07
-2.17215e-05
-5.76687e-07
-2.14713e-05
-5.89504e-07
-2.12168e-05
-6.02908e-07
-2.09578e-05
-6.16981e-07
-2.0694e-05
-6.31796e-07
-2.04253e-05
-6.47463e-07
-2.01512e-05
-6.64079e-07
-1.98713e-05
-6.81794e-07
-1.95851e-05
-7.00776e-07
-1.9292e-05
-7.21232e-07
-1.89911e-05
-7.43426e-07
-1.86816e-05
-7.6765e-07
-1.83625e-05
-7.9428e-07
-1.80325e-05
-8.2385e-07
-1.76902e-05
-8.56985e-07
-1.73338e-05
-8.94385e-07
-1.69616e-05
-9.36894e-07
-1.65716e-05
-9.8542e-07
-1.61616e-05
-1.04067e-06
-1.57294e-05
-1.10281e-06
-1.52736e-05
-1.17099e-06
-1.47935e-05
-1.24235e-06
-1.42913e-05
-1.31044e-06
-1.3773e-05
-1.36242e-06
-1.3251e-05
-1.37424e-06
-1.27437e-05
-1.30477e-06
-1.22868e-05
-1.09618e-06
-1.19605e-05
-7.04265e-07
-1.20282e-05
-8.09561e-09
-1.25687e-05
7.92499e-07
-1.39439e-05
2.26696e-06
-1.66743e-05
5.02386e-06
-2.17999e-05
1.06966e-05
2.65663e-05
-3.28697e-05
-3.43445e-05
-5.07353e-08
-3.43027e-05
-1.39892e-07
-3.4249e-05
-1.89427e-07
-3.41877e-05
-2.17477e-07
-3.41216e-05
-2.3485e-07
-3.40523e-05
-2.46558e-07
-3.39806e-05
-2.54921e-07
-3.39071e-05
-2.61442e-07
-3.38322e-05
-2.66861e-07
-3.3756e-05
-2.71713e-07
-3.36786e-05
-2.76236e-07
-3.36e-05
-2.80627e-07
-3.35204e-05
-2.84963e-07
-3.34396e-05
-2.8932e-07
-3.33578e-05
-2.93726e-07
-3.32748e-05
-2.98212e-07
-3.31906e-05
-3.02792e-07
-3.31052e-05
-3.07476e-07
-3.30186e-05
-3.12278e-07
-3.29306e-05
-3.17197e-07
-3.28413e-05
-3.22237e-07
-3.27506e-05
-3.27394e-07
-3.26584e-05
-3.32711e-07
-3.25646e-05
-3.38177e-07
-3.24691e-05
-3.43663e-07
-3.23721e-05
-3.49119e-07
-3.22737e-05
-3.546e-07
-3.21741e-05
-3.60103e-07
-3.20732e-05
-3.65686e-07
-3.1971e-05
-3.71375e-07
-3.18677e-05
-3.77191e-07
-3.1763e-05
-3.83144e-07
-3.16572e-05
-3.89247e-07
-3.155e-05
-3.9551e-07
-3.14417e-05
-4.01943e-07
-3.13321e-05
-4.08549e-07
-3.12213e-05
-4.15334e-07
-3.11092e-05
-4.22317e-07
-3.09959e-05
-4.29515e-07
-3.08815e-05
-4.36898e-07
-3.07658e-05
-4.44509e-07
-3.06491e-05
-4.52357e-07
-3.05312e-05
-4.60441e-07
-3.04123e-05
-4.68784e-07
-3.02923e-05
-4.77387e-07
-3.01714e-05
-4.86261e-07
-3.00496e-05
-4.95413e-07
-2.99269e-05
-5.04847e-07
-2.98035e-05
-5.14551e-07
-2.96794e-05
-5.24492e-07
-2.95548e-05
-5.34617e-07
-2.94296e-05
-5.44838e-07
-2.93039e-05
-5.54991e-07
-2.9178e-05
-5.64942e-07
-2.90522e-05
-5.74739e-07
-2.89266e-05
-5.84528e-07
-2.8801e-05
-5.9443e-07
-2.86755e-05
-6.04387e-07
-2.855e-05
-6.14322e-07
-2.84246e-05
-6.2426e-07
-2.82996e-05
-6.34209e-07
-2.81751e-05
-6.44186e-07
-2.80514e-05
-6.54213e-07
-2.79287e-05
-6.64289e-07
-2.78073e-05
-6.74437e-07
-2.76875e-05
-6.84678e-07
-2.75697e-05
-6.95039e-07
-2.74541e-05
-7.05548e-07
-2.73412e-05
-7.16253e-07
-2.72314e-05
-7.27223e-07
-2.71252e-05
-7.38531e-07
-2.70228e-05
-7.50288e-07
-2.69248e-05
-7.62591e-07
-2.68314e-05
-7.75619e-07
-2.67431e-05
-7.89588e-07
-2.666e-05
-8.04764e-07
-2.65824e-05
-8.21508e-07
-2.65103e-05
-8.40227e-07
-2.64437e-05
-8.61399e-07
-2.63823e-05
-8.85736e-07
-2.63257e-05
-9.14057e-07
-2.62734e-05
-9.47205e-07
-2.62248e-05
-9.8613e-07
-2.61789e-05
-1.03178e-06
-2.61353e-05
-1.0849e-06
-2.6093e-05
-1.14563e-06
-2.60519e-05
-1.21275e-06
-2.60123e-05
-1.28256e-06
-2.59762e-05
-1.34717e-06
-2.59477e-05
-1.39162e-06
-2.59328e-05
-1.38973e-06
-2.59394e-05
-1.29878e-06
-2.59793e-05
-1.05685e-06
-2.60966e-05
-5.87285e-07
-2.6281e-05
1.76105e-07
-2.67945e-05
1.3059e-06
-2.78234e-05
3.29581e-06
-2.97519e-05
6.95229e-06
-3.33025e-05
1.42472e-05
3.1194e-05
-3.79302e-05
-3.70393e-05
-7.75415e-08
-3.70098e-05
-1.74276e-07
-3.6973e-05
-2.31046e-07
-3.69307e-05
-2.64593e-07
-3.68846e-05
-2.85589e-07
-3.68362e-05
-2.99591e-07
-3.67862e-05
-3.09428e-07
-3.67351e-05
-3.1695e-07
-3.66833e-05
-3.23059e-07
-3.66308e-05
-3.28434e-07
-3.65779e-05
-3.33352e-07
-3.65245e-05
-3.38078e-07
-3.64707e-05
-3.42688e-07
-3.64167e-05
-3.47296e-07
-3.63623e-05
-3.51917e-07
-3.63076e-05
-3.56606e-07
-3.62527e-05
-3.61364e-07
-3.61975e-05
-3.66218e-07
-3.61421e-05
-3.71173e-07
-3.60864e-05
-3.76238e-07
-3.60306e-05
-3.81408e-07
-3.59745e-05
-3.86676e-07
-3.59183e-05
-3.92069e-07
-3.5862e-05
-3.9755e-07
-3.58056e-05
-4.03127e-07
-3.57489e-05
-4.08747e-07
-3.5692e-05
-4.14298e-07
-3.56351e-05
-4.19813e-07
-3.55781e-05
-4.25353e-07
-3.55212e-05
-4.30952e-07
-3.54643e-05
-4.36628e-07
-3.54075e-05
-4.4239e-07
-3.53509e-05
-4.48245e-07
-3.52946e-05
-4.54199e-07
-3.52385e-05
-4.60253e-07
-3.51829e-05
-4.66404e-07
-3.51277e-05
-4.72645e-07
-3.50731e-05
-4.7898e-07
-3.50191e-05
-4.85423e-07
-3.4966e-05
-4.91958e-07
-3.49138e-05
-4.98594e-07
-3.48626e-05
-5.05319e-07
-3.48126e-05
-5.12124e-07
-3.4764e-05
-5.19012e-07
-3.4717e-05
-5.25971e-07
-3.46718e-05
-5.32985e-07
-3.46287e-05
-5.40041e-07
-3.45878e-05
-5.47117e-07
-3.45495e-05
-5.54182e-07
-3.45142e-05
-5.61169e-07
-3.4482e-05
-5.68001e-07
-3.44532e-05
-5.74811e-07
-3.44276e-05
-5.81719e-07
-3.44051e-05
-5.88538e-07
-3.43858e-05
-5.95133e-07
-3.43698e-05
-6.0154e-07
-3.43573e-05
-6.07807e-07
-3.43487e-05
-6.13903e-07
-3.43441e-05
-6.19765e-07
-3.43438e-05
-6.25368e-07
-3.43482e-05
-6.30656e-07
-3.43575e-05
-6.3561e-07
-3.43722e-05
-6.40268e-07
-3.43925e-05
-6.44642e-07
-3.44188e-05
-6.48751e-07
-3.44515e-05
-6.52616e-07
-3.44909e-05
-6.56274e-07
-3.45372e-05
-6.5977e-07
-3.45908e-05
-6.63177e-07
-3.4652e-05
-6.66593e-07
-3.47209e-05
-6.70134e-07
-3.47977e-05
-6.73978e-07
-3.48824e-05
-6.78321e-07
-3.4975e-05
-6.83428e-07
-3.50754e-05
-6.89627e-07
-3.51832e-05
-6.97325e-07
-3.52981e-05
-7.07037e-07
-3.54193e-05
-7.19355e-07
-3.55462e-05
-7.34851e-07
-3.56778e-05
-7.54406e-07
-3.58132e-05
-7.79022e-07
-3.5951e-05
-8.09602e-07
-3.60903e-05
-8.47122e-07
-3.62298e-05
-8.92479e-07
-3.63687e-05
-9.4624e-07
-3.65063e-05
-1.00823e-06
-3.66425e-05
-1.07674e-06
-3.67778e-05
-1.14734e-06
-3.69139e-05
-1.21127e-06
-3.70527e-05
-1.2529e-06
-3.71963e-05
-1.24623e-06
-3.73439e-05
-1.15119e-06
-3.74952e-05
-9.05603e-07
-3.76479e-05
-4.34562e-07
-3.78088e-05
3.36951e-07
-3.811e-05
1.60709e-06
-3.86711e-05
3.85695e-06
-3.96644e-05
7.94557e-06
-4.12738e-05
1.58566e-05
3.12577e-05
-4.13374e-05
-3.97548e-05
-9.72617e-08
-3.97426e-05
-1.91489e-07
-3.97293e-05
-2.49566e-07
-3.97138e-05
-2.85165e-07
-3.96968e-05
-3.07698e-07
-3.96789e-05
-3.22451e-07
-3.96606e-05
-3.32613e-07
-3.96423e-05
-3.40078e-07
-3.96242e-05
-3.45949e-07
-3.96065e-05
-3.50898e-07
-3.95891e-05
-3.55301e-07
-3.95724e-05
-3.59399e-07
-3.95562e-05
-3.6332e-07
-3.95408e-05
-3.67153e-07
-3.95261e-05
-3.70941e-07
-3.95122e-05
-3.74715e-07
-3.94993e-05
-3.7849e-07
-3.94874e-05
-3.82274e-07
-3.94765e-05
-3.86076e-07
-3.94668e-05
-3.89902e-07
-3.94584e-05
-3.93727e-07
-3.94514e-05
-3.97513e-07
-3.9446e-05
-4.01297e-07
-3.94422e-05
-4.0505e-07
-3.94401e-05
-4.08837e-07
-3.94397e-05
-4.12764e-07
-3.94407e-05
-4.16743e-07
-3.94433e-05
-4.20674e-07
-3.94475e-05
-4.24568e-07
-3.94533e-05
-4.28441e-07
-3.94609e-05
-4.32303e-07
-3.94703e-05
-4.3616e-07
-3.94816e-05
-4.40014e-07
-3.9495e-05
-4.43863e-07
-3.95106e-05
-4.47706e-07
-3.95284e-05
-4.51529e-07
-3.95485e-05
-4.55329e-07
-3.95712e-05
-4.59105e-07
-3.95965e-05
-4.62846e-07
-3.96246e-05
-4.6655e-07
-3.96555e-05
-4.7023e-07
-3.96895e-05
-4.73852e-07
-3.97267e-05
-4.77417e-07
-3.97672e-05
-4.80922e-07
-3.98111e-05
-4.8436e-07
-3.98587e-05
-4.87716e-07
-3.99099e-05
-4.90981e-07
-3.9965e-05
-4.94145e-07
-4.0024e-05
-4.97184e-07
-4.00871e-05
-5.00069e-07
-4.01543e-05
-5.02777e-07
-4.02255e-05
-5.05372e-07
-4.03011e-05
-5.07916e-07
-4.0381e-05
-5.10299e-07
-4.04653e-05
-5.12429e-07
-4.05541e-05
-5.14295e-07
-4.06475e-05
-5.15916e-07
-4.07455e-05
-5.17308e-07
-4.08481e-05
-5.18467e-07
-4.09554e-05
-5.19366e-07
-4.10673e-05
-5.19945e-07
-4.11838e-05
-5.2021e-07
-4.13049e-05
-5.20209e-07
-4.14305e-05
-5.1999e-07
-4.15606e-05
-5.19608e-07
-4.1695e-05
-5.19104e-07
-4.18335e-05
-5.18544e-07
-4.1976e-05
-5.17996e-07
-4.21223e-05
-5.1755e-07
-4.22722e-05
-5.17323e-07
-4.24254e-05
-5.17451e-07
-4.25818e-05
-5.18115e-07
-4.27411e-05
-5.19528e-07
-4.2903e-05
-5.21963e-07
-4.30672e-05
-5.25752e-07
-4.32336e-05
-5.31301e-07
-4.34018e-05
-5.39112e-07
-4.35715e-05
-5.49879e-07
-4.37426e-05
-5.64031e-07
-4.39147e-05
-5.82467e-07
-4.40876e-05
-6.06321e-07
-4.42609e-05
-6.36382e-07
-4.44346e-05
-6.73583e-07
-4.46085e-05
-7.18727e-07
-4.47825e-05
-7.72237e-07
-4.4957e-05
-8.33811e-07
-4.51322e-05
-9.01626e-07
-4.53085e-05
-9.71117e-07
-4.54862e-05
-1.03357e-06
-4.5665e-05
-1.07413e-06
-4.58423e-05
-1.06895e-06
-4.60111e-05
-9.8239e-07
-4.61565e-05
-7.60189e-07
-4.62587e-05
-3.32375e-07
-4.63214e-05
3.99665e-07
-4.6383e-05
1.66863e-06
-4.64594e-05
3.93334e-06
-4.65504e-05
8.0366e-06
-4.63318e-05
1.5638e-05
2.84316e-05
-4.35058e-05
-4.26249e-05
-1.03299e-07
-4.26348e-05
-1.86779e-07
-4.26502e-05
-2.39537e-07
-4.26681e-05
-2.72596e-07
-4.26875e-05
-2.93536e-07
-4.27083e-05
-3.069e-07
-4.27304e-05
-3.15767e-07
-4.27537e-05
-3.21869e-07
-4.27784e-05
-3.26349e-07
-4.28045e-05
-3.29821e-07
-4.28321e-05
-3.32697e-07
-4.28612e-05
-3.35184e-07
-4.28919e-05
-3.37439e-07
-4.29244e-05
-3.39525e-07
-4.29586e-05
-3.41505e-07
-4.29947e-05
-3.43391e-07
-4.30326e-05
-3.45209e-07
-4.30726e-05
-3.46953e-07
-4.31146e-05
-3.48636e-07
-4.31588e-05
-3.50283e-07
-4.32051e-05
-3.5186e-07
-4.32538e-05
-3.53282e-07
-4.33049e-05
-3.54636e-07
-4.33584e-05
-3.55972e-07
-4.34142e-05
-3.5731e-07
-4.34726e-05
-3.58695e-07
-4.35335e-05
-3.60074e-07
-4.3597e-05
-3.61384e-07
-4.36631e-05
-3.62619e-07
-4.37319e-05
-3.63787e-07
-4.38034e-05
-3.64899e-07
-4.38777e-05
-3.65961e-07
-4.39547e-05
-3.66983e-07
-4.40346e-05
-3.67965e-07
-4.41173e-05
-3.6891e-07
-4.42029e-05
-3.69811e-07
-4.42915e-05
-3.70675e-07
-4.43829e-05
-3.71505e-07
-4.44772e-05
-3.72296e-07
-4.45745e-05
-3.7304e-07
-4.46746e-05
-3.73765e-07
-4.47777e-05
-3.74463e-07
-4.48836e-05
-3.75131e-07
-4.49923e-05
-3.75777e-07
-4.51037e-05
-3.76404e-07
-4.52179e-05
-3.77005e-07
-4.53347e-05
-3.77578e-07
-4.54541e-05
-3.78122e-07
-4.5576e-05
-3.78628e-07
-4.57002e-05
-3.7907e-07
-4.58267e-05
-3.79451e-07
-4.59554e-05
-3.79804e-07
-4.60862e-05
-3.80161e-07
-4.6219e-05
-3.80457e-07
-4.63537e-05
-3.80642e-07
-4.64901e-05
-3.80697e-07
-4.66281e-05
-3.80614e-07
-4.67676e-05
-3.80417e-07
-4.69085e-05
-3.8015e-07
-4.70506e-05
-3.79769e-07
-4.71938e-05
-3.79154e-07
-4.7338e-05
-3.78309e-07
-4.74831e-05
-3.77272e-07
-4.76291e-05
-3.76088e-07
-4.77759e-05
-3.74823e-07
-4.79235e-05
-3.7348e-07
-4.80717e-05
-3.72125e-07
-4.82206e-05
-3.70815e-07
-4.83702e-05
-3.69621e-07
-4.85204e-05
-3.68646e-07
-4.86713e-05
-3.68018e-07
-4.88228e-05
-3.67895e-07
-4.89752e-05
-3.68478e-07
-4.91283e-05
-3.70036e-07
-4.92822e-05
-3.72897e-07
-4.9437e-05
-3.77461e-07
-4.95929e-05
-3.84223e-07
-4.97497e-05
-3.93875e-07
-4.99076e-05
-4.06895e-07
-5.00669e-05
-4.23931e-07
-5.02278e-05
-4.45969e-07
-5.03908e-05
-4.73983e-07
-5.0556e-05
-5.08924e-07
-5.07236e-05
-5.51538e-07
-5.08941e-05
-6.02182e-07
-5.10677e-05
-6.60554e-07
-5.12446e-05
-7.24996e-07
-5.14248e-05
-7.91206e-07
-5.16075e-05
-8.51096e-07
-5.17902e-05
-8.91514e-07
-5.19674e-05
-8.91929e-07
-5.21275e-05
-8.2241e-07
-5.22465e-05
-6.41251e-07
-5.22962e-05
-2.82748e-07
-5.22588e-05
3.62287e-07
-5.21049e-05
1.51471e-06
-5.17538e-05
3.58224e-06
-5.10353e-05
7.31799e-06
-4.93329e-05
1.39356e-05
2.38398e-05
-4.47412e-05
-4.55794e-05
-9.39395e-08
-4.5613e-05
-1.58447e-07
-4.56573e-05
-2.00423e-07
-4.5708e-05
-2.27171e-07
-4.57628e-05
-2.43905e-07
-4.58207e-05
-2.54166e-07
-4.58811e-05
-2.6053e-07
-4.59436e-05
-2.64429e-07
-4.60081e-05
-2.6687e-07
-4.60746e-05
-2.68385e-07
-4.61429e-05
-2.6934e-07
-4.62131e-05
-2.69921e-07
-4.62852e-05
-2.70273e-07
-4.63591e-05
-2.70456e-07
-4.6435e-05
-2.70535e-07
-4.65127e-05
-2.70522e-07
-4.65923e-05
-2.70448e-07
-4.66738e-05
-2.70309e-07
-4.67571e-05
-2.70125e-07
-4.68423e-05
-2.69916e-07
-4.69293e-05
-2.69671e-07
-4.70182e-05
-2.69263e-07
-4.7109e-05
-2.68679e-07
-4.72018e-05
-2.67967e-07
-4.72967e-05
-2.67215e-07
-4.73937e-05
-2.66468e-07
-4.74928e-05
-2.65716e-07
-4.75941e-05
-2.64925e-07
-4.76973e-05
-2.64097e-07
-4.78027e-05
-2.63234e-07
-4.791e-05
-2.62363e-07
-4.80192e-05
-2.61487e-07
-4.81303e-05
-2.60639e-07
-4.82432e-05
-2.59814e-07
-4.83578e-05
-2.59035e-07
-4.84741e-05
-2.58292e-07
-4.8592e-05
-2.57608e-07
-4.87113e-05
-2.56972e-07
-4.8832e-05
-2.56412e-07
-4.89539e-05
-2.55918e-07
-4.9077e-05
-2.55509e-07
-4.92011e-05
-2.55183e-07
-4.93262e-05
-2.54943e-07
-4.94521e-05
-2.54791e-07
-4.95786e-05
-2.54731e-07
-4.97058e-05
-2.54754e-07
-4.98335e-05
-2.5485e-07
-4.99615e-05
-2.55012e-07
-5.00899e-05
-2.55245e-07
-5.02185e-05
-2.555e-07
-5.03471e-05
-2.5579e-07
-5.04758e-05
-2.56113e-07
-5.06045e-05
-2.56485e-07
-5.07332e-05
-2.56845e-07
-5.08617e-05
-2.57142e-07
-5.09901e-05
-2.57352e-07
-5.11183e-05
-2.57435e-07
-5.12464e-05
-2.57403e-07
-5.13742e-05
-2.57343e-07
-5.15018e-05
-2.57212e-07
-5.16292e-05
-2.56769e-07
-5.17564e-05
-2.56007e-07
-5.18836e-05
-2.54974e-07
-5.20109e-05
-2.53708e-07
-5.21382e-05
-2.52264e-07
-5.22658e-05
-2.50645e-07
-5.23937e-05
-2.48886e-07
-5.25221e-05
-2.47035e-07
-5.26511e-05
-2.45152e-07
-5.27808e-05
-2.43324e-07
-5.29115e-05
-2.41667e-07
-5.30433e-05
-2.40324e-07
-5.31764e-05
-2.39492e-07
-5.33111e-05
-2.39422e-07
-5.34474e-05
-2.40434e-07
-5.35857e-05
-2.42913e-07
-5.37262e-05
-2.47344e-07
-5.38694e-05
-2.54237e-07
-5.40153e-05
-2.64318e-07
-5.41641e-05
-2.78418e-07
-5.43159e-05
-2.97215e-07
-5.44712e-05
-3.21592e-07
-5.46304e-05
-3.52464e-07
-5.4794e-05
-3.90537e-07
-5.49624e-05
-4.36133e-07
-5.51362e-05
-4.89039e-07
-5.53152e-05
-5.48079e-07
-5.54988e-05
-6.09575e-07
-5.56852e-05
-6.66418e-07
-5.58705e-05
-7.07847e-07
-5.60463e-05
-7.17554e-07
-5.61978e-05
-6.72088e-07
-5.62968e-05
-5.43195e-07
-5.63056e-05
-2.74608e-07
-5.618e-05
2.3613e-07
-5.58413e-05
1.1754e-06
-5.51262e-05
2.86655e-06
-5.37255e-05
5.91647e-06
-5.09149e-05
1.1124e-05
1.82236e-05
-4.53e-05
-4.82399e-05
-7.21553e-08
-4.82898e-05
-1.1322e-07
-4.8353e-05
-1.41995e-07
-4.84245e-05
-1.6031e-07
-4.85014e-05
-1.71529e-07
-4.85821e-05
-1.78079e-07
-4.86654e-05
-1.81748e-07
-4.87507e-05
-1.83597e-07
-4.88376e-05
-1.84333e-07
-4.8926e-05
-1.84365e-07
-4.90157e-05
-1.83963e-07
-4.91066e-05
-1.83271e-07
-4.91988e-05
-1.824e-07
-4.92921e-05
-1.814e-07
-4.93865e-05
-1.80324e-07
-4.9482e-05
-1.79185e-07
-4.95786e-05
-1.78009e-07
-4.96763e-05
-1.76794e-07
-4.9775e-05
-1.75557e-07
-4.98748e-05
-1.74261e-07
-4.99757e-05
-1.72915e-07
-5.00776e-05
-1.71559e-07
-5.01802e-05
-1.7019e-07
-5.02836e-05
-1.68759e-07
-5.03876e-05
-1.67336e-07
-5.04923e-05
-1.65951e-07
-5.05975e-05
-1.64623e-07
-5.07033e-05
-1.63326e-07
-5.08096e-05
-1.62077e-07
-5.09162e-05
-1.60858e-07
-5.10231e-05
-1.59716e-07
-5.11302e-05
-1.58627e-07
-5.12376e-05
-1.57648e-07
-5.1345e-05
-1.56749e-07
-5.14525e-05
-1.55976e-07
-5.156e-05
-1.55287e-07
-5.16675e-05
-1.54729e-07
-5.17748e-05
-1.54256e-07
-5.1882e-05
-1.53915e-07
-5.1989e-05
-1.53688e-07
-5.20958e-05
-1.53577e-07
-5.22023e-05
-1.53575e-07
-5.23086e-05
-1.53675e-07
-5.24147e-05
-1.53881e-07
-5.25204e-05
-1.54183e-07
-5.2626e-05
-1.54567e-07
-5.27313e-05
-1.55013e-07
-5.28364e-05
-1.55507e-07
-5.29413e-05
-1.56045e-07
-5.3046e-05
-1.56591e-07
-5.31507e-05
-1.57135e-07
-5.32552e-05
-1.5766e-07
-5.33598e-05
-1.58164e-07
-5.34644e-05
-1.58599e-07
-5.35692e-05
-1.58911e-07
-5.36742e-05
-1.59068e-07
-5.37795e-05
-1.59019e-07
-5.38852e-05
-1.58741e-07
-5.39913e-05
-1.58403e-07
-5.40978e-05
-1.58048e-07
-5.42048e-05
-1.57204e-07
-5.43126e-05
-1.55873e-07
-5.44213e-05
-1.54161e-07
-5.45309e-05
-1.52119e-07
-5.46416e-05
-1.49756e-07
-5.47534e-05
-1.47096e-07
-5.48666e-05
-1.44158e-07
-5.49813e-05
-1.40968e-07
-5.50977e-05
-1.37577e-07
-5.52159e-05
-1.34057e-07
-5.53361e-05
-1.30511e-07
-5.54585e-05
-1.27072e-07
-5.55834e-05
-1.23926e-07
-5.57109e-05
-1.21309e-07
-5.58413e-05
-1.19527e-07
-5.59749e-05
-1.18937e-07
-5.61119e-05
-1.20004e-07
-5.62526e-05
-1.23221e-07
-5.63974e-05
-1.29338e-07
-5.65464e-05
-1.39265e-07
-5.67e-05
-1.53575e-07
-5.68585e-05
-1.73087e-07
-5.70223e-05
-1.9863e-07
-5.7192e-05
-2.30894e-07
-5.7368e-05
-2.70217e-07
-5.75505e-05
-3.16481e-07
-5.77393e-05
-3.69299e-07
-5.79327e-05
-4.26064e-07
-5.81284e-05
-4.80604e-07
-5.83206e-05
-5.25187e-07
-5.84994e-05
-5.4812e-07
-5.86469e-05
-5.33543e-07
-5.87356e-05
-4.62862e-07
-5.87167e-05
-3.01043e-07
-5.85207e-05
3.35073e-08
-5.80375e-05
6.85818e-07
-5.70382e-05
1.8601e-06
-5.51164e-05
3.9858e-06
-5.15364e-05
7.53239e-06
1.20481e-05
-4.5375e-05
-5.02433e-05
-3.85776e-08
-5.03002e-05
-5.97254e-08
-5.03706e-05
-7.48993e-08
-5.04496e-05
-8.44987e-08
-5.0534e-05
-9.02618e-08
-5.06216e-05
-9.35456e-08
-5.07111e-05
-9.52366e-08
-5.08017e-05
-9.59374e-08
-5.08928e-05
-9.60153e-08
-5.09843e-05
-9.56812e-08
-5.10759e-05
-9.51016e-08
-5.11675e-05
-9.43467e-08
-5.1259e-05
-9.34866e-08
-5.13504e-05
-9.2553e-08
-5.14417e-05
-9.15785e-08
-5.15327e-05
-9.05714e-08
-5.16236e-05
-8.95484e-08
-5.17142e-05
-8.85087e-08
-5.18046e-05
-8.74616e-08
-5.18947e-05
-8.6368e-08
-5.19846e-05
-8.5247e-08
-5.20741e-05
-8.4212e-08
-5.21632e-05
-8.3297e-08
-5.22517e-05
-8.2435e-08
-5.23396e-05
-8.16249e-08
-5.24269e-05
-8.08698e-08
-5.25136e-05
-8.01807e-08
-5.25997e-05
-7.95359e-08
-5.26852e-05
-7.89422e-08
-5.277e-05
-7.83844e-08
-5.28543e-05
-7.78935e-08
-5.2938e-05
-7.74531e-08
-5.30211e-05
-7.70994e-08
-5.31037e-05
-7.68126e-08
-5.31859e-05
-7.66195e-08
-5.32675e-05
-7.64908e-08
-5.33487e-05
-7.64496e-08
-5.34295e-05
-7.64559e-08
-5.351e-05
-7.65531e-08
-5.35902e-05
-7.6707e-08
-5.36702e-05
-7.69344e-08
-5.375e-05
-7.72179e-08
-5.38297e-05
-7.75354e-08
-5.39094e-05
-7.79041e-08
-5.39891e-05
-7.83051e-08
-5.40689e-05
-7.87196e-08
-5.41488e-05
-7.91354e-08
-5.4229e-05
-7.95402e-08
-5.43095e-05
-7.989e-08
-5.43904e-05
-8.01876e-08
-5.44718e-05
-8.04152e-08
-5.45537e-05
-8.05557e-08
-5.46363e-05
-8.05827e-08
-5.47196e-05
-8.04579e-08
-5.48037e-05
-8.01355e-08
-5.48887e-05
-7.95756e-08
-5.49747e-05
-7.87364e-08
-5.50619e-05
-7.75148e-08
-5.51503e-05
-7.61392e-08
-5.52397e-05
-7.50004e-08
-5.53305e-05
-7.31024e-08
-5.54228e-05
-7.05209e-08
-5.55166e-05
-6.74683e-08
-5.56122e-05
-6.40028e-08
-5.57097e-05
-6.01184e-08
-5.5809e-05
-5.58303e-08
-5.59105e-05
-5.11453e-08
-5.60142e-05
-4.6079e-08
-5.61203e-05
-4.06692e-08
-5.6229e-05
-3.49773e-08
-5.63404e-05
-2.90917e-08
-5.64548e-05
-2.31309e-08
-5.65723e-05
-1.7268e-08
-5.66933e-05
-1.17211e-08
-5.68179e-05
-6.77211e-09
-5.69465e-05
-2.77714e-09
-5.70794e-05
-8.44361e-11
-5.72168e-05
6.45036e-10
-5.73592e-05
-1.18274e-09
-5.75069e-05
-6.37673e-09
-5.76605e-05
-1.54571e-08
-5.78206e-05
-2.93041e-08
-5.79876e-05
-4.87047e-08
-5.81622e-05
-7.43465e-08
-5.83446e-05
-1.06697e-07
-5.85355e-05
-1.45584e-07
-5.87344e-05
-1.91644e-07
-5.89387e-05
-2.44207e-07
-5.9146e-05
-2.97196e-07
-5.935e-05
-3.46748e-07
-5.95394e-05
-3.85856e-07
-5.96954e-05
-4.06459e-07
-5.97901e-05
-3.98799e-07
-5.97734e-05
-3.50013e-07
-5.95608e-05
-2.12732e-07
-5.89978e-05
8.87358e-08
-5.78319e-05
6.58062e-07
-5.55894e-05
1.70115e-06
-5.1545e-05
3.43639e-06
5.57197e-06
-4.51291e-05
-5.11791e-05
7.09162e-10
-5.12356e-05
-4.42412e-09
-5.13051e-05
-6.60336e-09
-5.13828e-05
-7.89326e-09
-5.14653e-05
-8.83238e-09
-5.15502e-05
-9.57355e-09
-5.16363e-05
-1.01531e-08
-5.17225e-05
-1.06087e-08
-5.18084e-05
-1.09796e-08
-5.18937e-05
-1.12528e-08
-5.19781e-05
-1.14788e-08
-5.20616e-05
-1.16463e-08
-5.21441e-05
-1.17663e-08
-5.22255e-05
-1.18594e-08
-5.23059e-05
-1.19212e-08
-5.23852e-05
-1.19605e-08
-5.24635e-05
-1.19716e-08
-5.25407e-05
-1.19605e-08
-5.26169e-05
-1.19164e-08
-5.26922e-05
-1.18309e-08
-5.27664e-05
-1.17198e-08
-5.28396e-05
-1.16535e-08
-5.2912e-05
-1.16397e-08
-5.29835e-05
-1.16541e-08
-5.30542e-05
-1.16776e-08
-5.31241e-05
-1.17175e-08
-5.31934e-05
-1.17687e-08
-5.32619e-05
-1.18231e-08
-5.33298e-05
-1.1861e-08
-5.33972e-05
-1.18961e-08
-5.34641e-05
-1.19219e-08
-5.35305e-05
-1.1971e-08
-5.35965e-05
-1.20292e-08
-5.36622e-05
-1.21147e-08
-5.37276e-05
-1.22091e-08
-5.37928e-05
-1.23362e-08
-5.38579e-05
-1.24657e-08
-5.39228e-05
-1.26089e-08
-5.39877e-05
-1.27693e-08
-5.40526e-05
-1.2925e-08
-5.41176e-05
-1.30911e-08
-5.41828e-05
-1.32518e-08
-5.42482e-05
-1.33888e-08
-5.43138e-05
-1.35047e-08
-5.43798e-05
-1.35916e-08
-5.44462e-05
-1.36262e-08
-5.4513e-05
-1.35987e-08
-5.45804e-05
-1.3494e-08
-5.46484e-05
-1.32669e-08
-5.47171e-05
-1.29221e-08
-5.47865e-05
-1.24454e-08
-5.48567e-05
-1.18127e-08
-5.49278e-05
-1.09872e-08
-5.49998e-05
-9.94813e-09
-5.50729e-05
-8.63395e-09
-5.5147e-05
-7.0122e-09
-5.52224e-05
-5.03185e-09
-5.5299e-05
-2.60985e-09
-5.53772e-05
3.81845e-10
-5.54564e-05
2.37348e-09
-5.5537e-05
5.64034e-09
-5.56193e-05
9.82233e-09
-5.57033e-05
1.45218e-08
-5.57892e-05
1.97022e-08
-5.5877e-05
2.53799e-08
-5.59669e-05
3.1565e-08
-5.6059e-05
3.82607e-08
-5.61533e-05
4.5463e-08
-5.62502e-05
5.31456e-08
-5.63497e-05
6.12581e-08
-5.6452e-05
6.97292e-08
-5.65574e-05
7.84578e-08
-5.66661e-05
8.72905e-08
-5.67783e-05
9.60281e-08
-5.68943e-05
1.04416e-07
-5.70144e-05
1.1213e-07
-5.71389e-05
1.18813e-07
-5.72682e-05
1.23899e-07
-5.74028e-05
1.26803e-07
-5.7543e-05
1.26879e-07
-5.76894e-05
1.23506e-07
-5.78426e-05
1.15896e-07
-5.8003e-05
1.03274e-07
-5.81712e-05
8.49469e-08
-5.83475e-05
6.03104e-08
-5.85316e-05
2.88524e-08
-5.87242e-05
-9.2526e-09
-5.89216e-05
-5.77631e-08
-5.9122e-05
-1.09049e-07
-5.93186e-05
-1.64177e-07
-5.95001e-05
-2.20602e-07
-5.96485e-05
-2.76952e-07
-5.97343e-05
-3.35402e-07
-5.97126e-05
-3.98571e-07
-5.94935e-05
-4.64577e-07
-5.89149e-05
-5.30162e-07
-5.76975e-05
-6.05856e-07
-5.53416e-05
-7.05216e-07
-5.11153e-05
-8.41487e-07
-9.65585e-07
-4.46238e-05
-5.07029e-05
3.8787e-08
-5.07586e-05
5.21677e-08
-5.08281e-05
6.3723e-08
-5.09062e-05
7.10037e-08
-5.09894e-05
7.51256e-08
-5.10755e-05
7.71448e-08
-5.11628e-05
7.78873e-08
-5.12507e-05
7.78662e-08
-5.13385e-05
7.74e-08
-5.14258e-05
7.66818e-08
-5.15126e-05
7.58213e-08
-5.15986e-05
7.48745e-08
-5.16837e-05
7.39053e-08
-5.1768e-05
7.29059e-08
-5.18514e-05
7.19157e-08
-5.19338e-05
7.09283e-08
-5.20153e-05
6.99694e-08
-5.20958e-05
6.90314e-08
-5.21754e-05
6.81377e-08
-5.22541e-05
6.72812e-08
-5.23318e-05
6.64591e-08
-5.24086e-05
6.56261e-08
-5.24845e-05
6.47889e-08
-5.25596e-05
6.39483e-08
-5.26339e-05
6.31312e-08
-5.27074e-05
6.2327e-08
-5.27801e-05
6.15479e-08
-5.2852e-05
6.08008e-08
-5.29233e-05
6.01218e-08
-5.2994e-05
5.9489e-08
-5.3064e-05
5.89189e-08
-5.31336e-05
5.83643e-08
-5.32026e-05
5.78566e-08
-5.32711e-05
5.7365e-08
-5.33392e-05
5.69239e-08
-5.3407e-05
5.64963e-08
-5.34745e-05
5.61286e-08
-5.35417e-05
5.57817e-08
-5.36087e-05
5.55035e-08
-5.36755e-05
5.52663e-08
-5.37423e-05
5.50983e-08
-5.38091e-05
5.49966e-08
-5.38759e-05
5.49569e-08
-5.39428e-05
5.50137e-08
-5.40098e-05
5.51688e-08
-5.40771e-05
5.54384e-08
-5.41447e-05
5.58399e-08
-5.42126e-05
5.63906e-08
-5.4281e-05
5.71207e-08
-5.43498e-05
5.80399e-08
-5.44192e-05
5.91626e-08
-5.44892e-05
6.05141e-08
-5.45599e-05
6.21292e-08
-5.46314e-05
6.40288e-08
-5.47036e-05
6.62764e-08
-5.47768e-05
6.89012e-08
-5.48509e-05
7.19338e-08
-5.49261e-05
7.54714e-08
-5.5002e-05
7.93655e-08
-5.50796e-05
8.32191e-08
-5.51586e-05
8.79853e-08
-5.52389e-05
9.35993e-08
-5.53205e-05
9.98689e-08
-5.54037e-05
1.06758e-07
-5.54885e-05
1.14272e-07
-5.5575e-05
1.2242e-07
-5.56634e-05
1.31216e-07
-5.57538e-05
1.40672e-07
-5.58463e-05
1.50778e-07
-5.59412e-05
1.61487e-07
-5.60385e-05
1.72759e-07
-5.61384e-05
1.8451e-07
-5.62413e-05
1.96614e-07
-5.63472e-05
2.08894e-07
-5.64565e-05
2.21126e-07
-5.65695e-05
2.33025e-07
-5.66864e-05
2.44235e-07
-5.68075e-05
2.54274e-07
-5.69334e-05
2.62608e-07
-5.70645e-05
2.68649e-07
-5.72012e-05
2.7178e-07
-5.7344e-05
2.71251e-07
-5.74934e-05
2.66269e-07
-5.76497e-05
2.56136e-07
-5.78134e-05
2.40045e-07
-5.79839e-05
2.16923e-07
-5.816e-05
1.85958e-07
-5.83418e-05
1.45483e-07
-5.85229e-05
9.62177e-08
-5.86953e-05
3.57211e-08
-5.88488e-05
-3.6045e-08
-5.89669e-05
-1.24084e-07
-5.90205e-05
-2.42998e-07
-5.89623e-05
-4.13584e-07
-5.87082e-05
-6.7039e-07
-5.81027e-05
-1.08192e-06
-5.6867e-05
-1.78183e-06
-5.45138e-05
-2.99269e-06
-5.03406e-05
-4.94419e-06
-7.28116e-06
-4.39556e-05
-4.90798e-05
6.80814e-08
-4.91323e-05
1.07239e-07
-4.91992e-05
1.33193e-07
-4.92754e-05
1.49744e-07
-4.93575e-05
1.59698e-07
-4.94433e-05
1.65345e-07
-4.95314e-05
1.6841e-07
-4.9621e-05
1.69856e-07
-4.97115e-05
1.70387e-07
-4.98028e-05
1.70316e-07
-4.98946e-05
1.69938e-07
-4.99866e-05
1.69317e-07
-5.0079e-05
1.68579e-07
-5.01715e-05
1.67746e-07
-5.02641e-05
1.66865e-07
-5.03568e-05
1.65938e-07
-5.04495e-05
1.64996e-07
-5.05422e-05
1.64033e-07
-5.06348e-05
1.63072e-07
-5.07272e-05
1.621e-07
-5.08195e-05
1.61119e-07
-5.09116e-05
1.60101e-07
-5.10035e-05
1.59055e-07
-5.10951e-05
1.57972e-07
-5.11864e-05
1.56877e-07
-5.12774e-05
1.5576e-07
-5.13679e-05
1.54634e-07
-5.14581e-05
1.53515e-07
-5.15478e-05
1.52444e-07
-5.16371e-05
1.51414e-07
-5.17259e-05
1.50424e-07
-5.18142e-05
1.49445e-07
-5.1902e-05
1.48495e-07
-5.19893e-05
1.47563e-07
-5.20761e-05
1.46676e-07
-5.21624e-05
1.45819e-07
-5.22481e-05
1.45021e-07
-5.23334e-05
1.44262e-07
-5.24182e-05