/*--------------------------------*- C++ -*----------------------------------*\
| =========                 |                                                 |
| \\      /  F ield         | OpenFOAM: The Open Source CFD Toolbox           |
|  \\    /   O peration     | Version:  2.1.0                                 |
|   \\  /    A nd           | Web:      www.OpenFOAM.org                      |
|    \\/     M anipulation  |                                                 |
\*---------------------------------------------------------------------------*/
FoamFile
{
    version     2.0;
    format      ascii;
    class       volScalarField;
    location    "0.41";
    object      rho;
}
// * * * * * * * * * * * * * * * * * * * * * * * * * * * * * * * * * * * * * //

dimensions      [1 -3 0 0 0 0 0];

internalField   nonuniform List<scalar> 
6400
(
949.275
949.128
948.985
948.847
948.712
948.582
948.455
948.332
948.212
948.097
947.984
947.875
947.769
947.666
947.567
947.471
947.378
947.287
947.2
947.116
947.034
946.955
946.879
946.806
946.735
946.667
946.601
946.538
946.477
946.418
946.362
946.308
946.256
946.206
946.158
946.112
946.068
946.026
945.986
945.948
945.912
945.877
945.844
945.812
945.783
945.754
945.727
945.702
945.678
945.656
945.634
945.614
945.596
945.578
945.562
945.547
945.533
945.52
945.508
945.497
945.487
945.478
945.469
945.462
945.456
945.45
945.446
945.442
945.439
945.438
945.437
945.437
945.439
945.441
945.445
945.451
945.457
945.465
945.475
945.487
945.502
945.519
945.539
945.564
945.595
945.633
945.683
945.748
945.839
945.973
946.184
946.549
947.252
948.689
950.733
947.369
944.674
944.556
944.555
944.555
948.84
948.709
948.579
948.451
948.327
948.206
948.088
947.973
947.861
947.752
947.646
947.542
947.442
947.344
947.25
947.157
947.068
946.981
946.897
946.815
946.736
946.659
946.584
946.512
946.442
946.375
946.31
946.247
946.187
946.128
946.072
946.017
945.965
945.915
945.867
945.821
945.776
945.734
945.693
945.654
945.617
945.581
945.547
945.515
945.484
945.455
945.427
945.4
945.375
945.351
945.329
945.308
945.287
945.268
945.25
945.233
945.217
945.202
945.188
945.174
945.162
945.149
945.138
945.127
945.117
945.108
945.099
945.09
945.082
945.074
945.067
945.06
945.053
945.047
945.041
945.036
945.031
945.026
945.022
945.018
945.015
945.012
945.01
945.008
945.008
945.008
945.008
945.01
945.012
945.014
945.013
945.006
944.984
944.931
944.825
944.673
944.565
944.555
944.555
944.555
948.859
948.734
948.607
948.481
948.358
948.238
948.12
948.005
947.892
947.782
947.674
947.569
947.467
947.367
947.269
947.174
947.081
946.991
946.902
946.816
946.733
946.651
946.572
946.495
946.42
946.348
946.277
946.209
946.143
946.079
946.017
945.957
945.899
945.843
945.789
945.737
945.687
945.638
945.592
945.548
945.505
945.464
945.425
945.387
945.352
945.317
945.285
945.254
945.224
945.196
945.169
945.143
945.119
945.096
945.074
945.053
945.033
945.014
944.996
944.979
944.963
944.948
944.933
944.919
944.905
944.892
944.88
944.868
944.856
944.844
944.833
944.822
944.811
944.8
944.789
944.778
944.767
944.756
944.745
944.734
944.723
944.711
944.699
944.688
944.676
944.664
944.652
944.64
944.628
944.617
944.605
944.594
944.584
944.574
944.566
944.561
944.556
944.555
944.555
944.555
949.215
949.092
948.964
948.837
948.711
948.588
948.466
948.346
948.228
948.113
948
947.889
947.78
947.673
947.568
947.465
947.365
947.266
947.17
947.075
946.983
946.892
946.804
946.717
946.633
946.55
946.469
946.391
946.314
946.239
946.166
946.095
946.027
945.96
945.895
945.831
945.77
945.711
945.654
945.598
945.545
945.493
945.443
945.395
945.349
945.305
945.262
945.222
945.183
945.145
945.11
945.075
945.043
945.012
944.983
944.955
944.928
944.903
944.879
944.857
944.836
944.816
944.797
944.779
944.762
944.746
944.731
944.716
944.703
944.69
944.678
944.667
944.656
944.646
944.636
944.627
944.619
944.611
944.604
944.597
944.591
944.585
944.58
944.576
944.572
944.568
944.565
944.563
944.561
944.559
944.558
944.557
944.556
944.556
944.555
944.555
944.555
944.555
944.555
944.555
950.001
949.878
949.749
949.619
949.489
949.361
949.233
949.108
948.983
948.861
948.74
948.62
948.503
948.387
948.272
948.16
948.049
947.939
947.831
947.725
947.621
947.518
947.417
947.318
947.22
947.124
947.03
946.937
946.846
946.756
946.668
946.582
946.497
946.414
946.333
946.253
946.176
946.099
946.025
945.952
945.882
945.813
945.746
945.68
945.617
945.556
945.496
945.438
945.383
945.329
945.278
945.228
945.181
945.135
945.092
945.05
945.011
944.973
944.938
944.904
944.873
944.843
944.816
944.79
944.766
944.743
944.723
944.704
944.686
944.671
944.656
944.643
944.631
944.62
944.611
944.602
944.595
944.588
944.583
944.578
944.573
944.57
944.567
944.564
944.562
944.56
944.559
944.557
944.556
944.556
944.555
944.555
944.555
944.555
944.555
944.555
944.555
944.555
944.555
944.555
951.438
951.315
951.186
951.056
950.924
950.793
950.663
950.533
950.405
950.277
950.151
950.026
949.902
949.779
949.657
949.536
949.416
949.298
949.18
949.063
948.948
948.833
948.72
948.607
948.496
948.386
948.277
948.168
948.061
947.955
947.85
947.747
947.644
947.542
947.441
947.342
947.243
947.146
947.05
946.955
946.861
946.769
946.678
946.588
946.5
946.413
946.327
946.244
946.162
946.081
946.003
945.926
945.851
945.778
945.707
945.638
945.571
945.506
945.444
945.384
945.326
945.27
945.217
945.166
945.118
945.072
945.029
944.988
944.949
944.913
944.878
944.847
944.817
944.789
944.764
944.74
944.718
944.698
944.68
944.663
944.648
944.634
944.622
944.61
944.6
944.591
944.584
944.577
944.571
944.566
944.562
944.559
944.557
944.556
944.555
944.555
944.555
944.555
944.555
944.555
953.871
953.753
953.63
953.505
953.379
953.252
953.126
953.001
952.876
952.752
952.628
952.506
952.384
952.262
952.142
952.021
951.901
951.782
951.662
951.543
951.424
951.305
951.187
951.068
950.951
950.833
950.716
950.6
950.484
950.368
950.253
950.137
950.023
949.908
949.794
949.68
949.566
949.452
949.338
949.225
949.111
948.998
948.885
948.771
948.658
948.545
948.432
948.319
948.206
948.093
947.98
947.867
947.755
947.643
947.531
947.42
947.309
947.199
947.089
946.981
946.873
946.767
946.661
946.557
946.455
946.355
946.256
946.159
946.065
945.973
945.883
945.795
945.71
945.628
945.548
945.471
945.397
945.325
945.257
945.19
945.127
945.067
945.009
944.955
944.903
944.853
944.807
944.763
944.723
944.686
944.653
944.626
944.603
944.587
944.576
944.57
944.566
944.562
944.56
944.559
957.612
957.507
957.399
957.289
957.179
957.068
956.959
956.85
956.742
956.634
956.528
956.422
956.317
956.213
956.11
956.006
955.904
955.802
955.701
955.599
955.499
955.398
955.297
955.196
955.096
954.996
954.896
954.795
954.695
954.594
954.493
954.392
954.29
954.188
954.085
953.981
953.876
953.771
953.664
953.556
953.447
953.337
953.225
953.111
952.996
952.879
952.76
952.639
952.517
952.392
952.265
952.135
952.004
951.87
951.733
951.595
951.454
951.31
951.164
951.016
950.865
950.711
950.556
950.398
950.238
950.075
949.911
949.745
949.577
949.408
949.236
949.064
948.89
948.716
948.54
948.363
948.186
948.008
947.829
947.649
947.468
947.285
947.101
946.915
946.727
946.538
946.347
946.154
945.962
945.771
945.585
945.407
945.242
945.096
944.974
944.886
944.814
944.756
944.714
944.686
963.03
962.956
962.88
962.803
962.727
962.651
962.577
962.504
962.432
962.361
962.292
962.223
962.156
962.09
962.026
961.962
961.9
961.838
961.778
961.719
961.661
961.603
961.547
961.49
961.433
961.376
961.318
961.26
961.202
961.142
961.082
961.02
960.958
960.894
960.829
960.762
960.694
960.624
960.552
960.479
960.404
960.327
960.248
960.167
960.083
959.998
959.91
959.819
959.726
959.631
959.532
959.431
959.328
959.221
959.111
958.998
958.882
958.762
958.639
958.512
958.382
958.247
958.108
957.965
957.817
957.665
957.508
957.346
957.178
957.005
956.826
956.642
956.451
956.253
956.048
955.835
955.614
955.385
955.145
954.895
954.633
954.357
954.066
953.759
953.432
953.083
952.71
952.31
951.879
951.418
950.926
950.405
949.859
949.296
948.726
948.175
947.696
947.257
946.884
946.611
970.286
970.258
970.23
970.203
970.176
970.149
970.123
970.098
970.073
970.049
970.026
970.003
969.98
969.959
969.937
969.916
969.896
969.875
969.855
969.835
969.814
969.794
969.774
969.753
969.732
969.711
969.689
969.667
969.645
969.622
969.599
969.575
969.551
969.526
969.501
969.475
969.449
969.422
969.395
969.367
969.339
969.31
969.281
969.251
969.221
969.19
969.159
969.128
969.096
969.063
969.03
968.996
968.962
968.927
968.892
968.857
968.82
968.784
968.747
968.709
968.671
968.632
968.592
968.55
968.508
968.463
968.418
968.37
968.321
968.269
968.214
968.157
968.096
968.032
967.964
967.891
967.813
967.729
967.638
967.54
967.433
967.317
967.191
967.052
966.901
966.736
966.555
966.354
966.119
965.844
965.523
965.149
964.712
964.202
963.605
962.9
962.087
961.243
960.434
959.782
978.019
978.039
978.059
978.078
978.096
978.114
978.131
978.148
978.164
978.179
978.194
978.208
978.222
978.235
978.248
978.261
978.273
978.286
978.298
978.31
978.322
978.335
978.347
978.36
978.373
978.387
978.402
978.417
978.432
978.449
978.466
978.484
978.503
978.523
978.544
978.566
978.589
978.614
978.639
978.666
978.694
978.723
978.753
978.785
978.818
978.853
978.889
978.927
978.966
979.007
979.05
979.094
979.141
979.189
979.24
979.292
979.347
979.405
979.465
979.528
979.594
979.663
979.736
979.814
979.897
979.984
980.077
980.176
980.281
980.393
980.513
980.64
980.777
980.923
981.079
981.245
981.424
981.615
981.82
982.039
982.272
982.521
982.786
983.067
983.365
983.68
984.011
984.362
984.743
985.161
985.62
986.121
986.663
987.249
987.883
988.565
989.292
990.05
990.798
991.462
984.302
984.363
984.424
984.486
984.548
984.61
984.672
984.734
984.794
984.856
984.916
984.976
985.036
985.095
985.154
985.214
985.272
985.331
985.39
985.448
985.507
985.566
985.625
985.684
985.744
985.804
985.865
985.926
985.988
986.051
986.115
986.179
986.245
986.312
986.38
986.449
986.52
986.592
986.666
986.741
986.818
986.897
986.979
987.062
987.147
987.235
987.325
987.418
987.513
987.611
987.712
987.816
987.922
988.032
988.146
988.263
988.383
988.508
988.636
988.769
988.907
989.05
989.198
989.352
989.512
989.678
989.852
990.032
990.22
990.417
990.621
990.835
991.058
991.291
991.533
991.786
992.049
992.323
992.607
992.902
993.207
993.521
993.844
994.174
994.511
994.854
995.199
995.546
995.892
996.234
996.569
996.899
997.23
997.554
997.868
998.167
998.446
998.696
998.908
999.066
989.018
989.097
989.179
989.264
989.35
989.437
989.524
989.612
989.699
989.787
989.875
989.963
990.051
990.139
990.227
990.316
990.404
990.493
990.582
990.671
990.76
990.85
990.94
991.031
991.122
991.213
991.305
991.398
991.491
991.585
991.679
991.775
991.871
991.968
992.066
992.166
992.266
992.367
992.47
992.574
992.679
992.785
992.893
993.002
993.113
993.226
993.339
993.455
993.572
993.692
993.813
993.935
994.06
994.187
994.316
994.447
994.58
994.715
994.853
994.993
995.135
995.279
995.426
995.574
995.725
995.879
996.034
996.192
996.351
996.512
996.675
996.839
997.005
997.171
997.338
997.506
997.673
997.839
998.004
998.167
998.327
998.484
998.636
998.783
998.924
999.058
999.184
999.301
999.409
999.506
999.592
999.666
999.727
999.781
999.827
999.866
999.898
999.923
999.942
999.954
992.455
992.536
992.622
992.712
992.804
992.897
992.99
993.084
993.178
993.272
993.366
993.461
993.555
993.65
993.745
993.84
993.935
994.03
994.126
994.221
994.317
994.413
994.51
994.606
994.703
994.8
994.898
994.995
995.094
995.192
995.29
995.389
995.489
995.588
995.688
995.788
995.888
995.989
996.089
996.19
996.291
996.392
996.493
996.594
996.695
996.795
996.896
996.996
997.097
997.197
997.296
997.395
997.494
997.592
997.69
997.787
997.883
997.979
998.073
998.167
998.26
998.351
998.441
998.53
998.617
998.702
998.786
998.868
998.947
999.025
999.1
999.173
999.244
999.312
999.377
999.439
999.499
999.555
999.608
999.658
999.704
999.747
999.786
999.822
999.854
999.882
999.907
999.927
999.945
999.959
999.971
999.979
999.985
999.989
999.992
999.995
999.996
999.998
999.998
999.999
994.786
994.862
994.945
995.03
995.117
995.206
995.295
995.384
995.473
995.562
995.652
995.741
995.83
995.919
996.007
996.096
996.184
996.272
996.36
996.448
996.535
996.623
996.71
996.797
996.883
996.969
997.055
997.14
997.225
997.31
997.394
997.477
997.56
997.643
997.724
997.806
997.886
997.965
998.044
998.121
998.198
998.274
998.348
998.421
998.494
998.564
998.634
998.702
998.769
998.834
998.897
998.959
999.019
999.078
999.135
999.19
999.243
999.294
999.344
999.391
999.437
999.48
999.522
999.561
999.599
999.635
999.668
999.7
999.73
999.758
999.784
999.809
999.831
999.852
999.872
999.889
999.905
999.92
999.933
999.944
999.954
999.963
999.971
999.977
999.983
999.987
999.991
999.994
999.996
999.997
999.998
999.999
999.999
1000
1000
1000
1000
1000
1000
1000
996.326
996.394
996.468
996.544
996.622
996.701
996.78
996.858
996.937
997.015
997.093
997.171
997.248
997.324
997.4
997.476
997.551
997.626
997.699
997.773
997.845
997.917
997.988
998.059
998.128
998.197
998.265
998.331
998.397
998.462
998.526
998.589
998.65
998.711
998.77
998.829
998.886
998.941
998.996
999.049
999.101
999.151
999.2
999.247
999.293
999.337
999.38
999.421
999.46
999.498
999.535
999.569
999.602
999.634
999.664
999.692
999.718
999.743
999.767
999.789
999.81
999.829
999.847
999.863
999.879
999.893
999.905
999.917
999.928
999.937
999.946
999.954
999.961
999.967
999.972
999.977
999.981
999.985
999.988
999.991
999.993
999.994
999.996
999.997
999.998
999.999
999.999
999.999
1000
1000
1000
1000
1000
1000
1000
1000
1000
1000
1000
1000
997.373
997.431
997.495
997.56
997.626
997.692
997.758
997.824
997.889
997.953
998.017
998.081
998.144
998.206
998.267
998.328
998.387
998.446
998.505
998.562
998.619
998.674
998.729
998.783
998.835
998.887
998.938
998.988
999.036
999.084
999.13
999.175
999.219
999.262
999.303
999.344
999.382
999.42
999.456
999.491
999.525
999.557
999.588
999.618
999.646
999.673
999.698
999.722
999.745
999.767
999.787
999.806
999.824
999.841
999.857
999.871
999.885
999.897
999.908
999.919
999.928
999.937
999.945
999.952
999.958
999.964
999.969
999.974
999.978
999.981
999.985
999.987
999.989
999.991
999.993
999.995
999.996
999.997
999.997
999.998
999.999
999.999
999.999
1000
1000
1000
1000
1000
1000
1000
1000
1000
1000
1000
1000
1000
1000
1000
1000
1000
998.117
998.166
998.219
998.272
998.326
998.379
998.432
998.484
998.536
998.587
998.637
998.687
998.735
998.784
998.831
998.878
998.923
998.968
999.012
999.056
999.098
999.139
999.18
999.22
999.258
999.296
999.333
999.368
999.403
999.437
999.469
999.501
999.531
999.561
999.589
999.616
999.642
999.667
999.69
999.713
999.735
999.755
999.774
999.793
999.81
999.826
999.842
999.856
999.87
999.882
999.894
999.905
999.915
999.924
999.932
999.94
999.947
999.953
999.959
999.965
999.969
999.973
999.977
999.981
999.983
999.986
999.988
999.99
999.992
999.993
999.995
999.996
999.997
999.997
999.998
999.998
999.999
999.999
999.999
1000
1000
1000
1000
1000
1000
1000
1000
1000
1000
1000
1000
1000
1000
1000
1000
1000
1000
1000
1000
1000
998.664
998.704
998.746
998.788
998.83
998.872
998.913
998.953
998.993
999.032
999.07
999.108
999.145
999.181
999.216
999.251
999.285
999.318
999.351
999.382
999.413
999.443
999.472
999.5
999.528
999.554
999.58
999.605
999.629
999.652
999.674
999.695
999.716
999.735
999.754
999.771
999.788
999.804
999.819
999.834
999.847
999.86
999.872
999.883
999.894
999.904
999.913
999.922
999.929
999.937
999.944
999.95
999.955
999.961
999.965
999.97
999.973
999.977
999.98
999.983
999.985
999.987
999.989
999.991
999.993
999.994
999.995
999.996
999.997
999.997
999.998
999.998
999.999
999.999
999.999
999.999
1000
1000
1000
1000
1000
1000
1000
1000
1000
1000
1000
1000
1000
1000
1000
1000
1000
1000
1000
1000
1000
1000
1000
1000
999.152
999.182
999.212
999.242
999.271
999.3
999.329
999.357
999.384
999.411
999.437
999.463
999.488
999.512
999.535
999.558
999.581
999.603
999.624
999.644
999.664
999.683
999.701
999.719
999.736
999.752
999.768
999.783
999.797
999.811
999.824
999.837
999.849
999.86
999.87
999.881
999.89
999.899
999.907
999.915
999.923
999.93
999.936
999.942
999.948
999.953
999.958
999.962
999.966
999.97
999.973
999.976
999.979
999.982
999.984
999.986
999.988
999.99
999.991
999.992
999.994
999.995
999.995
999.996
999.997
999.997
999.998
999.998
999.999
999.999
999.999
999.999
999.999
1000
1000
1000
1000
1000
1000
1000
1000
1000
1000
1000
1000
1000
1000
1000
1000
1000
1000
1000
1000
1000
1000
1000
1000
1000
1000
1000
944.555
944.555
944.555
944.555
944.555
944.555
944.555
944.555
944.555
944.555
944.555
944.555
944.555
944.555
944.555
944.555
944.555
944.555
944.555
944.555
944.555
944.555
944.555
944.555
944.555
944.555
944.555
944.555
944.555
944.555
944.555
944.555
944.555
944.555
944.555
944.555
944.555
944.555
944.555
944.555
944.555
944.555
944.555
944.555
944.555
944.555
944.555
944.555
944.555
944.555
944.555
944.555
944.555
944.555
944.555
944.555
944.555
944.555
944.556
944.558
944.555
944.555
944.555
944.555
944.555
944.555
944.555
944.555
944.555
944.555
944.555
944.555
944.555
944.555
944.555
944.555
944.556
944.558
944.564
944.588
944.555
944.555
944.555
944.555
944.555
944.555
944.555
944.555
944.555
944.555
944.555
944.555
944.556
944.556
944.558
944.561
944.567
944.584
944.637
944.877
944.555
944.555
944.555
944.555
944.555
944.555
944.556
944.556
944.556
944.557
944.558
944.56
944.562
944.567
944.576
944.595
944.638
944.75
945.124
946.988
944.559
944.56
944.562
944.564
944.566
944.569
944.572
944.575
944.578
944.581
944.586
944.594
944.607
944.63
944.674
944.762
944.959
945.474
947.222
956.452
944.688
944.704
944.721
944.741
944.762
944.78
944.793
944.799
944.802
944.806
944.816
944.837
944.876
944.95
945.095
945.385
946.009
947.546
952.349
975.965
946.556
946.648
946.738
946.824
946.893
946.91
946.893
946.841
946.795
946.745
946.705
946.674
946.681
946.755
947.036
947.703
949.194
952.489
960.388
990.68
959.574
959.763
959.945
960.108
960.218
960.2
960.14
960.079
959.997
959.865
959.709
959.485
959.263
958.982
958.979
959.571
961.657
966.207
975.595
990.585
991.771
991.68
991.616
991.576
991.595
991.766
991.987
992.217
992.46
992.745
993.056
993.441
993.868
994.418
994.833
995.052
994.873
994.662
995.343
996.086
999.112
999.073
999.04
999.009
998.99
999.002
999.034
999.091
999.149
999.212
999.277
999.351
999.423
999.506
999.566
999.6
999.593
999.579
999.618
998.488
999.955
999.95
999.944
999.938
999.932
999.928
999.925
999.928
999.932
999.939
999.945
999.953
999.959
999.965
999.969
999.972
999.972
999.969
999.944
999.549
999.999
999.999
999.998
999.998
999.998
999.997
999.997
999.996
999.996
999.997
999.997
999.997
999.998
999.998
999.998
999.998
999.998
999.997
999.992
999.94
1000
1000
1000
1000
1000
1000
1000
1000
1000
1000
1000
1000
1000
1000
1000
1000
1000
1000
1000
999.999
1000
1000
1000
1000
1000
1000
1000
1000
1000
1000
1000
1000
1000
1000
1000
1000
1000
1000
1000
1000
1000
1000
1000
1000
1000
1000
1000
1000
1000
1000
1000
1000
1000
1000
1000
1000
1000
1000
1000
1000
1000
1000
1000
1000
1000
1000
1000
1000
1000
1000
1000
1000
1000
1000
1000
1000
1000
1000
1000
1000
1000
1000
1000
1000
1000
1000
1000
1000
1000
1000
1000
1000
1000
1000
1000
1000
1000
1000
1000
1000
1000
1000
1000
1000
1000
1000
1000
1000
1000
1000
1000
1000
1000
1000
1000
1000
1000
1000
1000
1000
944.555
944.555
944.555
944.555
944.555
944.555
944.555
944.555
944.555
944.555
944.555
944.555
944.555
944.555
944.555
944.555
944.555
944.555
944.555
944.555
944.555
944.555
944.555
944.555
944.555
944.555
944.555
944.555
944.555
944.555
944.555
944.555
944.555
944.555
944.555
944.555
944.555
944.555
944.555
944.555
944.555
944.555
944.555
944.555
944.555
944.555
944.555
944.555
944.555
944.555
944.555
944.555
944.555
944.555
944.555
944.555
944.555
944.555
944.555
944.555
944.555
944.555
944.555
944.555
944.555
944.555
944.555
944.555
944.555
944.555
944.555
944.555
944.555
944.555
944.555
944.555
944.555
944.555
944.555
944.555
944.555
944.555
944.555
944.555
944.555
944.555
944.555
944.555
944.555
944.555
944.555
944.555
944.555
944.555
944.555
944.555
944.555
944.555
944.555
944.555
944.555
944.555
944.555
944.555
944.555
944.555
944.555
944.555
944.555
944.555
944.555
944.555
944.555
944.555
944.555
944.555
944.555
944.555
944.555
944.555
944.555
944.555
944.555
944.555
944.555
944.555
944.555
944.555
944.555
944.555
944.555
944.555
944.555
944.555
944.555
944.555
944.555
944.555
944.555
944.555
944.555
944.555
944.555
944.555
944.555
944.555
944.555
944.555
944.555
944.555
944.555
944.555
944.555
944.555
944.555
944.555
944.555
944.555
944.555
944.555
944.555
944.555
944.555
944.555
944.555
944.555
944.555
944.555
944.555
944.555
944.555
944.555
944.555
944.555
944.555
944.555
944.555
944.555
944.555
944.555
944.555
944.555
944.555
944.555
944.555
944.555
944.555
944.555
944.555
944.555
944.555
944.555
944.555
944.555
944.555
944.555
944.555
944.555
944.555
944.555
944.555
944.555
944.555
944.555
944.555
944.555
944.555
944.555
944.555
944.555
944.555
944.555
944.555
944.555
944.555
944.555
944.555
944.555
944.555
944.555
944.555
944.555
944.555
944.555
944.555
944.555
944.555
944.555
944.555
944.555
944.555
944.555
944.555
944.555
944.555
944.555
944.555
944.555
944.555
944.555
944.555
944.555
944.555
944.555
944.555
944.555
944.555
944.555
944.555
944.555
944.555
944.555
944.555
944.555
944.555
944.555
944.555
944.555
944.555
944.555
944.555
944.555
944.555
944.555
944.555
944.555
944.555
944.555
944.555
944.555
944.555
944.555
944.555
944.555
944.555
944.555
944.555
944.555
944.555
944.555
944.555
944.555
944.555
944.555
944.555
944.555
944.555
944.555
944.555
944.555
944.555
944.555
944.555
944.555
944.555
944.555
944.555
944.555
944.555
944.555
944.555
944.555
944.555
944.555
944.555
944.555
944.555
944.555
944.555
944.555
944.555
944.555
944.555
944.555
944.555
944.555
944.555
944.555
944.555
944.555
944.555
944.555
944.555
944.555
944.555
944.555
944.555
944.555
944.555
944.555
944.555
944.555
944.555
944.555
944.555
944.555
944.555
944.555
944.555
944.555
944.555
944.555
944.555
944.555
944.555
944.555
944.555
944.555
944.555
944.555
944.555
944.555
944.555
944.555
944.555
944.555
944.555
944.555
944.555
944.555
944.555
944.555
944.555
944.555
944.555
944.555
944.555
944.555
944.555
944.555
944.555
944.555
944.555
944.555
944.555
944.555
944.555
944.555
944.555
944.555
944.555
944.555
944.555
944.555
944.555
944.555
944.555
944.555
944.555
944.555
944.555
944.555
944.555
944.555
944.555
944.555
944.555
944.555
944.555
944.555
944.555
944.555
944.555
944.555
944.555
944.555
944.555
944.555
944.555
944.555
944.555
944.555
944.555
944.555
944.555
944.555
944.555
944.555
944.555
944.555
944.555
944.555
944.555
944.555
944.555
944.555
944.555
944.555
944.555
944.555
944.555
944.555
944.555
944.555
944.555
944.555
944.555
944.555
944.555
944.555
944.555
944.555
944.555
944.555
944.555
944.555
944.555
944.555
944.555
944.555
944.555
944.555
944.555
944.555
944.555
944.555
944.555
944.555
944.555
944.555
944.555
944.555
944.555
944.555
944.555
944.555
944.555
944.555
944.555
944.555
944.555
944.555
944.555
944.555
944.555
944.555
944.555
944.555
944.555
944.555
944.555
944.555
944.555
944.555
944.555
944.555
944.555
944.555
944.555
944.555
944.555
944.555
944.555
944.555
944.555
944.555
944.555
944.555
944.555
944.555
944.555
944.555
944.555
944.555
944.555
944.555
944.555
944.555
944.555
944.555
944.555
944.555
944.555
944.555
944.555
944.555
944.555
944.555
944.555
944.555
944.555
944.555
944.555
944.555
944.555
944.555
944.555
944.555
944.555
944.555
944.555
944.555
944.555
944.555
944.555
944.555
944.555
944.555
944.555
944.555
944.555
944.555
944.555
944.555
944.555
944.555
944.555
944.555
944.555
944.555
944.555
944.555
944.555
944.555
944.555
944.555
944.555
944.555
944.555
944.555
944.555
944.555
944.555
944.555
944.555
944.555
944.555
944.555
944.555
944.555
944.555
944.555
944.555
944.555
944.555
944.555
944.555
944.555
944.555
944.555
944.555
944.555
944.555
944.555
944.555
944.555
944.555
944.555
944.555
944.555
944.555
944.555
944.555
944.555
944.555
944.555
944.555
944.555
944.555
944.555
944.555
944.555
944.555
944.555
944.555
944.555
944.555
944.555
944.555
944.555
944.555
944.555
944.555
944.555
944.555
944.555
944.555
944.555
944.555
944.555
944.555
944.555
944.555
944.555
944.555
944.555
944.555
944.555
944.555
944.555
944.555
944.555
944.555
944.555
944.555
944.555
944.555
944.555
944.555
944.555
944.555
944.555
944.555
944.555
944.555
944.555
944.555
944.555
944.555
944.555
944.555
944.555
944.555
944.555
944.555
944.555
944.555
944.555
944.555
944.555
944.555
944.555
944.555
944.555
944.555
944.555
944.555
944.555
944.555
944.555
944.555
944.555
944.555
944.555
944.555
944.555
944.555
944.555
944.555
944.555
944.555
944.555
944.555
944.555
944.555
944.555
944.555
944.555
944.555
944.555
944.555
944.555
944.555
944.555
944.555
944.555
944.555
944.555
944.555
944.555
944.555
944.555
944.555
944.555
944.555
944.555
944.555
944.555
944.555
944.555
944.555
944.555
944.555
944.555
944.555
944.555
944.555
944.555
944.555
944.555
944.555
944.555
944.555
944.555
944.555
944.555
944.555
944.555
944.555
944.555
944.555
944.555
944.555
944.555
944.555
944.555
944.555
944.555
944.555
944.555
944.555
944.555
944.555
944.555
944.555
944.555
944.555
944.555
944.555
944.555
944.555
944.555
944.555
944.555
944.555
944.555
944.555
944.555
944.555
944.555
944.555
944.555
944.555
944.555
944.555
944.555
944.555
944.555
944.555
944.555
944.555
944.555
944.555
944.555
944.555
944.555
944.555
944.555
944.555
944.555
944.555
944.555
944.555
944.555
944.555
944.555
944.555
944.555
944.555
944.555
944.555
944.555
944.555
944.555
944.555
944.555
944.555
944.555
944.555
944.555
944.555
944.555
944.555
944.555
944.555
944.555
944.555
944.555
944.555
944.555
944.555
944.555
944.555
944.555
944.555
944.555
944.555
944.555
944.555
944.555
944.555
944.555
944.555
944.555
944.555
944.555
944.555
944.555
944.555
944.555
944.555
944.555
944.555
944.555
944.555
944.555
944.555
944.555
944.555
944.555
944.555
944.555
944.555
944.555
944.555
944.555
944.555
944.555
944.555
944.555
944.555
944.555
944.555
944.555
944.555
944.555
944.555
944.555
944.555
944.555
944.555
944.555
944.555
944.555
944.555
944.555
944.555
944.555
944.555
944.555
944.555
944.555
944.555
944.555
944.555
944.555
944.555
944.555
944.555
944.555
944.555
944.555
944.555
944.555
944.555
944.555
944.555
944.555
944.555
944.555
944.555
944.555
944.555
944.555
944.555
944.555
944.555
944.555
944.555
944.555
944.555
944.555
944.555
944.555
944.555
944.555
944.555
944.555
944.555
944.555
944.555
944.555
944.555
944.555
944.555
944.555
944.555
944.555
944.555
944.555
944.555
944.555
944.555
944.555
944.555
944.555
944.555
944.555
944.555
944.555
944.555
944.555
944.555
944.555
944.555
944.555
944.555
944.555
944.555
944.555
944.555
944.555
944.555
944.555
944.555
944.555
944.555
944.555
944.555
944.555
944.555
944.555
944.555
944.555
944.555
944.555
944.555
944.555
944.555
944.555
944.555
944.555
944.555
944.555
944.555
944.555
944.555
944.555
944.555
944.555
944.555
944.555
944.555
944.555
944.555
944.555
944.555
944.555
944.555
944.555
944.555
944.555
944.555
944.555
944.555
944.555
944.555
944.555
944.555
944.555
944.555
944.555
944.555
944.555
944.555
944.555
944.555
944.555
944.555
944.555
944.555
944.555
944.555
944.555
944.555
944.555
944.555
944.555
944.555
944.555
944.555
944.555
944.555
944.555
944.555
944.555
944.555
944.555
944.555
944.555
944.555
944.555
944.555
944.555
944.555
944.555
944.555
944.555
944.555
944.555
944.555
944.555
944.555
944.555
944.555
944.555
944.555
944.555
944.555
944.555
944.555
944.555
944.555
944.555
944.555
944.555
944.555
944.555
944.555
944.555
944.555
944.555
944.555
944.555
944.555
944.555
944.555
944.555
944.555
944.555
944.555
944.555
944.555
944.555
944.555
944.555
944.555
944.555
944.555
944.555
944.555
944.555
944.555
944.555
944.555
944.555
944.555
944.555
944.555
944.555
944.555
944.555
944.555
944.555
944.555
944.555
944.555
944.555
944.555
944.555
944.555
944.555
944.555
944.555
944.555
944.555
944.555
944.555
944.555
944.555
944.555
944.555
944.555
944.555
944.555
944.555
944.555
944.555
944.555
944.555
944.555
944.555
944.555
944.555
944.555
944.555
944.555
944.555
944.555
944.555
944.555
944.555
944.555
944.555
944.555
944.555
944.555
944.555
944.555
944.555
944.555
944.555
944.555
944.555
944.555
944.555
944.555
944.555
944.555
944.555
944.555
944.555
944.555
944.555
944.555
944.555
944.555
944.555
944.555
944.555
944.555
944.555
944.555
944.555
944.555
944.555
944.555
944.555
944.555
944.555
944.555
944.555
944.555
944.555
944.555
944.555
944.555
944.555
944.555
944.555
944.555
944.555
944.555
944.555
944.555
944.555
944.555
944.555
944.555
944.555
944.555
944.555
944.555
944.555
944.555
944.555
944.555
944.555
944.555
944.555
944.555
944.555
944.555
944.555
944.555
944.555
944.555
944.555
944.555
944.555
944.555
944.555
944.555
944.555
944.555
944.555
944.555
944.555
944.555
944.555
944.555
944.555
944.555
944.555
944.555
944.555
944.555
944.555
944.555
944.555
944.555
944.555
944.555
944.555
944.555
944.555
944.555
944.555
944.555
944.555
944.555
944.555
944.555
944.555
944.555
944.555
944.555
944.555
944.555
944.555
944.555
944.555
944.555
944.555
944.555
944.555
944.555
944.555
944.555
944.555
944.555
944.555
944.555
944.555
944.555
944.555
944.555
944.555
944.555
944.555
944.555
944.555
944.555
944.555
944.555
944.555
944.555
944.555
944.555
944.555
944.555
944.555
944.555
944.555
944.555
944.555
944.555
944.555
944.555
944.555
944.555
944.555
944.555
944.555
944.555
944.555
944.555
944.555
944.555
944.555
944.555
944.555
944.555
944.555
944.555
944.555
944.555
944.555
944.555
944.555
944.555
944.555
944.555
944.555
944.555
944.555
944.555
944.555
944.555
944.555
944.555
944.555
944.555
944.555
944.555
944.555
944.555
944.555
944.555
944.555
944.555
944.555
944.555
944.555
944.555
944.555
944.555
944.555
944.555
944.555
944.555
944.555
944.555
944.555
944.555
944.555
944.555
944.555
944.555
944.555
944.555
944.555
944.555
944.555
944.555
944.555
944.555
944.555
944.555
944.555
944.555
944.555
944.555