/*--------------------------------*- C++ -*----------------------------------*\
| =========                 |                                                 |
| \\      /  F ield         | OpenFOAM: The Open Source CFD Toolbox           |
|  \\    /   O peration     | Version:  2.1.0                                 |
|   \\  /    A nd           | Web:      www.OpenFOAM.org                      |
|    \\/     M anipulation  |                                                 |
\*---------------------------------------------------------------------------*/
FoamFile
{
    version     2.0;
    format      ascii;
    class       volScalarField;
    location    "0.41";
    object      T;
}
// * * * * * * * * * * * * * * * * * * * * * * * * * * * * * * * * * * * * * //

dimensions      [0 0 0 1 0 0 0];

internalField   nonuniform List<scalar> 
6400
(
384.18
384.458
384.728
384.991
385.245
385.492
385.732
385.965
386.192
386.411
386.625
386.832
387.032
387.227
387.416
387.598
387.775
387.946
388.112
388.272
388.427
388.577
388.721
388.861
388.996
389.125
389.25
389.371
389.487
389.598
389.706
389.809
389.908
390.002
390.093
390.18
390.264
390.344
390.42
390.493
390.562
390.628
390.691
390.751
390.808
390.862
390.913
390.961
391.007
391.05
391.091
391.129
391.164
391.198
391.229
391.257
391.284
391.309
391.332
391.353
391.372
391.389
391.405
391.419
391.431
391.441
391.45
391.457
391.462
391.465
391.467
391.466
391.463
391.458
391.451
391.441
391.428
391.412
391.393
391.37
391.343
391.311
391.272
391.224
391.166
391.093
390.999
390.874
390.7
390.445
390.044
389.349
388.013
385.29
381.429
387.791
392.922
393.147
393.15
393.15
385.004
385.251
385.498
385.74
385.975
386.205
386.428
386.646
386.858
387.065
387.266
387.462
387.653
387.838
388.018
388.193
388.363
388.528
388.689
388.844
388.995
389.141
389.282
389.419
389.552
389.68
389.804
389.924
390.039
390.15
390.258
390.361
390.46
390.556
390.648
390.736
390.82
390.901
390.979
391.053
391.124
391.192
391.257
391.319
391.377
391.433
391.486
391.537
391.585
391.63
391.673
391.713
391.752
391.788
391.822
391.855
391.885
391.914
391.942
391.967
391.992
392.015
392.036
392.057
392.076
392.095
392.112
392.128
392.144
392.159
392.173
392.186
392.198
392.21
392.221
392.231
392.241
392.25
392.258
392.265
392.271
392.277
392.281
392.284
392.285
392.285
392.284
392.281
392.277
392.273
392.274
392.288
392.33
392.431
392.634
392.923
393.131
393.15
393.15
393.15
384.967
385.204
385.446
385.683
385.916
386.144
386.367
386.586
386.799
387.008
387.212
387.411
387.606
387.796
387.981
388.162
388.339
388.51
388.678
388.841
389
389.155
389.305
389.452
389.594
389.732
389.866
389.996
390.122
390.244
390.363
390.477
390.587
390.694
390.796
390.895
390.991
391.083
391.171
391.256
391.337
391.415
391.49
391.561
391.629
391.695
391.757
391.816
391.873
391.927
391.978
392.027
392.073
392.117
392.159
392.199
392.237
392.273
392.307
392.339
392.37
392.4
392.428
392.455
392.481
392.505
392.529
392.552
392.575
392.597
392.619
392.64
392.661
392.682
392.702
392.723
392.744
392.765
392.786
392.808
392.829
392.851
392.874
392.896
392.919
392.941
392.964
392.987
393.009
393.031
393.053
393.075
393.095
393.113
393.128
393.138
393.148
393.15
393.15
393.15
384.294
384.527
384.769
385.01
385.247
385.482
385.712
385.939
386.162
386.381
386.595
386.806
387.013
387.216
387.414
387.609
387.8
387.987
388.171
388.35
388.526
388.698
388.866
389.03
389.191
389.348
389.501
389.651
389.797
389.939
390.078
390.213
390.344
390.471
390.595
390.715
390.832
390.944
391.054
391.159
391.261
391.36
391.455
391.546
391.634
391.718
391.8
391.877
391.952
392.023
392.091
392.156
392.218
392.277
392.333
392.386
392.437
392.485
392.53
392.573
392.613
392.652
392.688
392.722
392.755
392.785
392.814
392.841
392.867
392.892
392.915
392.936
392.957
392.976
392.994
393.011
393.027
393.042
393.056
393.069
393.08
393.091
393.101
393.109
393.117
393.124
393.129
393.134
393.138
393.141
393.144
393.146
393.147
393.148
393.149
393.149
393.15
393.15
393.15
393.15
382.809
383.042
383.286
383.531
383.776
384.019
384.26
384.498
384.733
384.965
385.194
385.42
385.643
385.862
386.079
386.293
386.503
386.71
386.915
387.116
387.314
387.509
387.701
387.889
388.075
388.257
388.436
388.613
388.786
388.956
389.123
389.287
389.448
389.606
389.761
389.912
390.06
390.205
390.347
390.485
390.62
390.751
390.879
391.003
391.124
391.241
391.354
391.464
391.57
391.672
391.77
391.865
391.956
392.042
392.125
392.204
392.28
392.351
392.418
392.482
392.542
392.599
392.652
392.701
392.747
392.79
392.829
392.865
392.898
392.929
392.956
392.982
393.004
393.024
393.043
393.059
393.073
393.085
393.096
393.106
393.114
393.121
393.127
393.132
393.136
393.14
393.142
393.145
393.146
393.148
393.149
393.149
393.15
393.15
393.15
393.15
393.15
393.15
393.15
393.15
380.101
380.332
380.575
380.821
381.069
381.316
381.561
381.806
382.048
382.289
382.527
382.763
382.997
383.23
383.46
383.688
383.914
384.139
384.361
384.582
384.801
385.017
385.232
385.445
385.655
385.864
386.071
386.276
386.479
386.68
386.879
387.076
387.271
387.464
387.655
387.844
388.031
388.216
388.398
388.579
388.757
388.932
389.105
389.276
389.444
389.609
389.771
389.931
390.087
390.24
390.39
390.536
390.679
390.818
390.953
391.084
391.212
391.335
391.454
391.568
391.679
391.785
391.886
391.983
392.075
392.162
392.245
392.323
392.397
392.467
392.532
392.593
392.65
392.702
392.751
392.796
392.838
392.876
392.911
392.943
392.972
392.999
393.022
393.044
393.063
393.08
393.095
393.108
393.119
393.128
393.136
393.141
393.145
393.147
393.149
393.149
393.149
393.15
393.15
393.15
375.534
375.755
375.985
376.22
376.456
376.693
376.93
377.165
377.399
377.633
377.864
378.094
378.323
378.552
378.778
379.005
379.23
379.455
379.679
379.903
380.127
380.351
380.575
380.797
381.019
381.24
381.461
381.68
381.899
382.118
382.335
382.553
382.769
382.985
383.201
383.417
383.632
383.847
384.062
384.276
384.491
384.705
384.92
385.134
385.348
385.563
385.777
385.991
386.205
386.42
386.633
386.847
387.06
387.273
387.485
387.696
387.906
388.115
388.323
388.529
388.734
388.936
389.136
389.334
389.528
389.719
389.907
390.091
390.271
390.447
390.618
390.785
390.946
391.103
391.255
391.402
391.543
391.68
391.811
391.937
392.057
392.172
392.282
392.387
392.486
392.58
392.669
392.752
392.829
392.899
392.962
393.015
393.057
393.089
393.109
393.121
393.129
393.135
393.139
393.142
368.558
368.753
368.953
369.158
369.362
369.568
369.771
369.975
370.176
370.376
370.574
370.771
370.966
371.16
371.353
371.545
371.736
371.926
372.115
372.304
372.492
372.681
372.869
373.057
373.244
373.431
373.618
373.806
373.993
374.182
374.37
374.56
374.75
374.942
375.134
375.329
375.524
375.722
375.922
376.124
376.328
376.536
376.745
376.958
377.174
377.394
377.617
377.844
378.074
378.309
378.548
378.791
379.038
379.29
379.546
379.807
380.072
380.342
380.617
380.897
381.181
381.47
381.764
382.062
382.364
382.67
382.98
383.294
383.611
383.931
384.254
384.58
384.909
385.239
385.572
385.906
386.243
386.58
386.92
387.261
387.605
387.951
388.301
388.654
389.011
389.371
389.735
390.101
390.467
390.829
391.184
391.523
391.838
392.117
392.349
392.517
392.655
392.765
392.847
392.898
358.548
358.685
358.825
358.966
359.105
359.245
359.381
359.516
359.648
359.779
359.906
360.033
360.156
360.277
360.396
360.513
360.628
360.741
360.852
360.961
361.068
361.174
361.278
361.383
361.487
361.593
361.699
361.806
361.914
362.024
362.135
362.249
362.364
362.482
362.602
362.725
362.851
362.98
363.112
363.247
363.386
363.528
363.674
363.824
363.979
364.137
364.3
364.467
364.639
364.816
364.997
365.184
365.376
365.574
365.777
365.986
366.202
366.423
366.651
366.886
367.129
367.379
367.636
367.902
368.176
368.459
368.751
369.052
369.364
369.686
370.018
370.362
370.718
371.087
371.468
371.865
372.277
372.705
373.152
373.62
374.11
374.625
375.169
375.745
376.357
377.011
377.711
378.463
379.271
380.139
381.066
382.048
383.078
384.142
385.22
386.264
387.172
388.004
388.713
389.233
345.32
345.37
345.421
345.471
345.52
345.568
345.615
345.661
345.706
345.749
345.792
345.833
345.873
345.913
345.951
345.99
346.027
346.064
346.101
346.137
346.174
346.211
346.248
346.285
346.323
346.361
346.401
346.44
346.481
346.523
346.565
346.608
346.652
346.697
346.742
346.789
346.837
346.885
346.935
346.985
347.036
347.088
347.141
347.195
347.249
347.305
347.361
347.419
347.477
347.536
347.596
347.657
347.719
347.782
347.846
347.911
347.976
348.043
348.11
348.178
348.247
348.318
348.391
348.467
348.544
348.624
348.707
348.794
348.884
348.978
349.077
349.181
349.291
349.408
349.532
349.665
349.807
349.96
350.125
350.304
350.498
350.709
350.939
351.191
351.466
351.768
352.098
352.465
352.894
353.395
353.981
354.666
355.465
356.398
357.494
358.787
360.284
361.838
363.331
364.536
331.438
331.402
331.367
331.333
331.3
331.268
331.238
331.208
331.18
331.152
331.127
331.101
331.077
331.053
331.03
331.007
330.985
330.963
330.942
330.92
330.898
330.876
330.854
330.83
330.807
330.782
330.757
330.73
330.702
330.673
330.642
330.61
330.576
330.541
330.503
330.464
330.423
330.38
330.334
330.287
330.237
330.185
330.131
330.074
330.015
329.954
329.889
329.822
329.753
329.68
329.604
329.525
329.442
329.356
329.266
329.173
329.075
328.973
328.866
328.755
328.638
328.515
328.384
328.246
328.1
327.945
327.78
327.605
327.418
327.22
327.008
326.782
326.54
326.282
326.006
325.71
325.394
325.056
324.694
324.308
323.896
323.456
322.989
322.493
321.968
321.414
320.831
320.215
319.544
318.811
318.005
317.127
316.178
315.153
314.046
312.856
311.589
310.271
308.972
307.821
320.319
320.213
320.105
319.996
319.887
319.778
319.67
319.561
319.454
319.346
319.241
319.135
319.03
318.925
318.822
318.718
318.615
318.512
318.409
318.306
318.203
318.1
317.996
317.892
317.787
317.682
317.576
317.468
317.359
317.249
317.138
317.025
316.91
316.793
316.674
316.552
316.429
316.302
316.173
316.041
315.906
315.768
315.626
315.48
315.331
315.177
315.02
314.858
314.692
314.52
314.344
314.163
313.977
313.785
313.587
313.383
313.173
312.956
312.732
312.5
312.26
312.011
311.753
311.485
311.207
310.917
310.616
310.302
309.975
309.634
309.278
308.908
308.521
308.117
307.697
307.259
306.803
306.329
305.838
305.329
304.802
304.26
303.703
303.133
302.552
301.963
301.368
300.771
300.177
299.59
299.016
298.45
297.882
297.326
296.789
296.278
295.801
295.374
295.013
294.743
312.066
311.929
311.786
311.638
311.489
311.337
311.186
311.033
310.881
310.728
310.575
310.422
310.269
310.116
309.963
309.809
309.656
309.502
309.348
309.193
309.038
308.882
308.725
308.568
308.411
308.252
308.092
307.932
307.77
307.608
307.444
307.279
307.112
306.944
306.774
306.602
306.429
306.253
306.076
305.896
305.714
305.53
305.344
305.155
304.964
304.77
304.573
304.373
304.171
303.965
303.756
303.545
303.329
303.111
302.889
302.663
302.434
302.201
301.964
301.723
301.479
301.231
300.979
300.723
300.463
300.2
299.933
299.663
299.389
299.113
298.833
298.551
298.268
297.982
297.696
297.41
297.124
296.839
296.557
296.279
296.005
295.737
295.477
295.226
294.985
294.757
294.542
294.341
294.158
293.992
293.845
293.719
293.614
293.523
293.444
293.378
293.324
293.281
293.249
293.229
306.101
305.961
305.812
305.656
305.498
305.338
305.177
305.014
304.852
304.689
304.526
304.363
304.2
304.036
303.873
303.709
303.545
303.381
303.216
303.052
302.886
302.721
302.555
302.388
302.222
302.054
301.887
301.718
301.55
301.381
301.211
301.041
300.87
300.699
300.528
300.356
300.184
300.011
299.839
299.666
299.492
299.319
299.146
298.973
298.8
298.627
298.454
298.282
298.111
297.939
297.769
297.599
297.43
297.262
297.095
296.929
296.764
296.6
296.438
296.278
296.12
295.964
295.81
295.658
295.509
295.364
295.221
295.081
294.945
294.813
294.684
294.559
294.439
294.323
294.212
294.106
294.004
293.908
293.818
293.733
293.654
293.581
293.514
293.453
293.399
293.351
293.309
293.274
293.244
293.219
293.2
293.186
293.176
293.169
293.163
293.159
293.156
293.154
293.153
293.152
302.079
301.948
301.806
301.659
301.509
301.357
301.204
301.05
300.897
300.743
300.59
300.437
300.284
300.132
299.979
299.827
299.676
299.524
299.373
299.223
299.073
298.923
298.774
298.625
298.477
298.329
298.182
298.036
297.89
297.745
297.601
297.458
297.316
297.175
297.035
296.897
296.759
296.623
296.489
296.356
296.225
296.096
295.969
295.843
295.72
295.599
295.481
295.364
295.251
295.139
295.031
294.925
294.822
294.722
294.625
294.531
294.441
294.353
294.269
294.188
294.11
294.036
293.965
293.898
293.833
293.773
293.715
293.661
293.61
293.562
293.517
293.476
293.437
293.402
293.369
293.339
293.312
293.287
293.265
293.245
293.228
293.213
293.2
293.189
293.179
293.172
293.166
293.161
293.157
293.155
293.153
293.152
293.151
293.151
293.15
293.15
293.15
293.15
293.15
293.15
299.432
299.316
299.189
299.058
298.924
298.789
298.654
298.519
298.384
298.25
298.117
297.984
297.852
297.72
297.59
297.461
297.332
297.205
297.078
296.953
296.829
296.706
296.584
296.464
296.345
296.227
296.112
295.997
295.885
295.774
295.665
295.558
295.452
295.349
295.247
295.148
295.05
294.955
294.862
294.772
294.683
294.598
294.514
294.434
294.356
294.28
294.207
294.137
294.07
294.005
293.943
293.884
293.828
293.774
293.723
293.675
293.63
293.587
293.547
293.509
293.474
293.441
293.411
293.383
293.357
293.333
293.311
293.291
293.273
293.257
293.242
293.229
293.217
293.206
293.197
293.189
293.182
293.176
293.17
293.166
293.162
293.159
293.157
293.155
293.154
293.152
293.152
293.151
293.151
293.15
293.15
293.15
293.15
293.15
293.15
293.15
293.15
293.15
293.15
293.15
297.638
297.537
297.428
297.317
297.204
297.091
296.978
296.866
296.754
296.644
296.534
296.426
296.318
296.212
296.107
296.004
295.902
295.801
295.701
295.603
295.507
295.412
295.318
295.226
295.136
295.048
294.961
294.877
294.794
294.712
294.633
294.556
294.481
294.408
294.338
294.269
294.203
294.139
294.077
294.017
293.96
293.905
293.852
293.802
293.754
293.708
293.664
293.623
293.584
293.547
293.512
293.48
293.449
293.421
293.394
293.37
293.347
293.326
293.306
293.288
293.272
293.257
293.244
293.232
293.221
293.211
293.202
293.195
293.188
293.182
293.176
293.172
293.168
293.165
293.162
293.159
293.157
293.156
293.154
293.153
293.152
293.152
293.151
293.151
293.151
293.15
293.15
293.15
293.15
293.15
293.15
293.15
293.15
293.15
293.15
293.15
293.15
293.15
293.15
293.15
296.364
296.279
296.19
296.098
296.007
295.916
295.826
295.737
295.648
295.561
295.475
295.39
295.307
295.225
295.144
295.064
294.986
294.909
294.834
294.76
294.688
294.617
294.548
294.481
294.415
294.35
294.288
294.227
294.167
294.11
294.054
294
293.949
293.899
293.851
293.804
293.76
293.718
293.677
293.639
293.602
293.567
293.534
293.503
293.473
293.446
293.42
293.395
293.372
293.351
293.331
293.313
293.296
293.28
293.266
293.252
293.24
293.229
293.219
293.21
293.202
293.195
293.189
293.183
293.178
293.174
293.17
293.167
293.164
293.161
293.159
293.157
293.156
293.155
293.154
293.153
293.152
293.152
293.151
293.151
293.151
293.15
293.15
293.15
293.15
293.15
293.15
293.15
293.15
293.15
293.15
293.15
293.15
293.15
293.15
293.15
293.15
293.15
293.15
293.15
295.428
295.36
295.288
295.217
295.145
295.074
295.005
294.936
294.868
294.801
294.736
294.671
294.608
294.547
294.486
294.427
294.369
294.312
294.257
294.203
294.151
294.1
294.05
294.002
293.955
293.91
293.866
293.823
293.783
293.743
293.706
293.669
293.635
293.602
293.57
293.54
293.511
293.484
293.458
293.433
293.41
293.388
293.368
293.349
293.331
293.314
293.298
293.284
293.27
293.258
293.246
293.236
293.226
293.217
293.209
293.202
293.195
293.189
293.184
293.179
293.175
293.171
293.168
293.165
293.163
293.161
293.159
293.157
293.156
293.155
293.154
293.153
293.152
293.152
293.151
293.151
293.151
293.151
293.15
293.15
293.15
293.15
293.15
293.15
293.15
293.15
293.15
293.15
293.15
293.15
293.15
293.15
293.15
293.15
293.15
293.15
293.15
293.15
293.15
293.15
294.595
294.545
294.494
294.443
294.392
294.343
294.294
294.247
294.2
294.154
294.11
294.066
294.023
293.982
293.942
293.902
293.864
293.827
293.792
293.757
293.723
293.691
293.659
293.629
293.6
293.572
293.546
293.52
293.495
293.472
293.45
293.428
293.408
293.389
293.371
293.354
293.337
293.322
293.308
293.294
293.281
293.27
293.259
293.248
293.239
293.23
293.222
293.214
293.208
293.201
293.195
293.19
293.185
293.181
293.177
293.174
293.17
293.168
293.165
293.163
293.161
293.159
293.158
293.157
293.155
293.154
293.154
293.153
293.152
293.152
293.152
293.151
293.151
293.151
293.151
293.15
293.15
293.15
293.15
293.15
293.15
293.15
293.15
293.15
293.15
293.15
293.15
293.15
293.15
293.15
293.15
293.15
293.15
293.15
293.15
293.15
293.15
293.15
293.15
293.15
393.15
393.15
393.15
393.15
393.15
393.15
393.15
393.15
393.15
393.15
393.15
393.15
393.15
393.15
393.15
393.15
393.15
393.15
393.15
393.15
393.15
393.15
393.15
393.15
393.15
393.15
393.15
393.15
393.15
393.15
393.15
393.15
393.15
393.15
393.15
393.15
393.15
393.15
393.15
393.149
393.15
393.15
393.15
393.15
393.15
393.15
393.15
393.15
393.15
393.15
393.15
393.15
393.15
393.15
393.15
393.15
393.15
393.149
393.148
393.144
393.15
393.15
393.15
393.15
393.15
393.15
393.15
393.15
393.15
393.15
393.15
393.15
393.15
393.15
393.149
393.149
393.147
393.144
393.132
393.086
393.15
393.15
393.15
393.15
393.15
393.15
393.15
393.15
393.15
393.15
393.149
393.149
393.148
393.147
393.144
393.139
393.126
393.094
392.993
392.534
393.15
393.15
393.15
393.149
393.149
393.149
393.148
393.147
393.146
393.145
393.143
393.14
393.135
393.126
393.109
393.073
392.991
392.776
392.063
388.514
393.141
393.139
393.136
393.133
393.129
393.123
393.118
393.112
393.106
393.1
393.09
393.075
393.05
393.005
392.922
392.754
392.377
391.397
388.07
370.713
392.896
392.865
392.832
392.794
392.755
392.72
392.694
392.683
392.677
392.669
392.651
392.611
392.537
392.395
392.119
391.565
390.376
387.456
378.389
335.102
389.337
389.161
388.991
388.826
388.696
388.664
388.696
388.794
388.883
388.977
389.053
389.111
389.1
388.959
388.425
387.158
384.335
378.126
363.414
309.177
364.92
364.571
364.233
363.932
363.729
363.763
363.873
363.986
364.138
364.381
364.671
365.086
365.495
366.016
366.021
364.926
361.074
352.732
335.766
309.341
307.285
307.442
307.553
307.623
307.59
307.294
306.911
306.513
306.092
305.6
305.062
304.398
303.66
302.713
301.997
301.621
301.93
302.292
301.12
299.843
294.665
294.73
294.788
294.84
294.872
294.853
294.798
294.7
294.602
294.493
294.383
294.255
294.133
293.992
293.89
293.832
293.844
293.868
293.801
295.73
293.227
293.235
293.245
293.255
293.266
293.273
293.277
293.273
293.265
293.254
293.243
293.231
293.22
293.21
293.202
293.198
293.198
293.203
293.245
293.919
293.152
293.152
293.153
293.153
293.154
293.155
293.156
293.156
293.156
293.156
293.155
293.155
293.154
293.153
293.153
293.153
293.153
293.155
293.163
293.251
293.15
293.15
293.15
293.15
293.15
293.15
293.15
293.15
293.15
293.15
293.15
293.15
293.15
293.15
293.15
293.15
293.15
293.15
293.151
293.152
293.15
293.15
293.15
293.15
293.15
293.15
293.15
293.15
293.15
293.15
293.15
293.15
293.15
293.15
293.15
293.15
293.15
293.15
293.15
293.15
293.15
293.15
293.15
293.15
293.15
293.15
293.15
293.15
293.15
293.15
293.15
293.15
293.15
293.15
293.15
293.15
293.15
293.15
293.15
293.15
293.15
293.15
293.15
293.15
293.15
293.15
293.15
293.15
293.15
293.15
293.15
293.15
293.15
293.15
293.15
293.15
293.15
293.15
293.15
293.15
293.15
293.15
293.15
293.15
293.15
293.15
293.15
293.15
293.15
293.15
293.15
293.15
293.15
293.15
293.15
293.15
293.15
293.15
293.15
293.15
293.15
293.15
293.15
293.15
293.15
293.15
293.15
293.15
293.15
293.15
293.15
293.15
293.15
293.15
293.15
293.15
293.15
293.15
293.15
293.15
393.15
393.15
393.15
393.15
393.15
393.15
393.15
393.15
393.15
393.15
393.15
393.15
393.15
393.15
393.15
393.15
393.15
393.15
393.15
393.15
393.15
393.15
393.15
393.15
393.15
393.15
393.15
393.15
393.15
393.15
393.15
393.15
393.15
393.15
393.15
393.15
393.15
393.15
393.15
393.15
393.15
393.15
393.15
393.15
393.15
393.15
393.15
393.15
393.15
393.15
393.15
393.15
393.15
393.15
393.15
393.15
393.15
393.15
393.15
393.15
393.15
393.15
393.15
393.15
393.15
393.15
393.15
393.15
393.15
393.15
393.15
393.15
393.15
393.15
393.15
393.15
393.15
393.15
393.15
393.15
393.15
393.15
393.15
393.15
393.15
393.15
393.15
393.15
393.15
393.15
393.15
393.15
393.15
393.15
393.15
393.15
393.15
393.15
393.15
393.15
393.15
393.15
393.15
393.15
393.15
393.15
393.15
393.15
393.15
393.15
393.15
393.15
393.15
393.15
393.15
393.15
393.15
393.15
393.15
393.15
393.15
393.15
393.15
393.15
393.15
393.15
393.15
393.15
393.15
393.15
393.15
393.15
393.15
393.15
393.15
393.15
393.15
393.15
393.15
393.15
393.15
393.15
393.15
393.15
393.15
393.15
393.15
393.15
393.15
393.15
393.15
393.15
393.15
393.15
393.15
393.15
393.15
393.15
393.15
393.15
393.15
393.15
393.15
393.15
393.15
393.15
393.15
393.15
393.15
393.15
393.15
393.15
393.15
393.15
393.15
393.15
393.15
393.15
393.15
393.15
393.15
393.15
393.15
393.15
393.15
393.15
393.15
393.15
393.15
393.15
393.15
393.15
393.15
393.15
393.15
393.15
393.15
393.15
393.15
393.15
393.15
393.15
393.15
393.15
393.15
393.15
393.15
393.15
393.15
393.15
393.15
393.15
393.15
393.15
393.15
393.15
393.15
393.15
393.15
393.15
393.15
393.15
393.15
393.15
393.15
393.15
393.15
393.15
393.15
393.15
393.15
393.15
393.15
393.15
393.15
393.15
393.15
393.15
393.15
393.15
393.15
393.15
393.15
393.15
393.15
393.15
393.15
393.15
393.15
393.15
393.15
393.15
393.15
393.15
393.15
393.15
393.15
393.15
393.15
393.15
393.15
393.15
393.15
393.15
393.15
393.15
393.15
393.15
393.15
393.15
393.15
393.15
393.15
393.15
393.15
393.15
393.15
393.15
393.15
393.15
393.15
393.15
393.15
393.15
393.15
393.15
393.15
393.15
393.15
393.15
393.15
393.15
393.15
393.15
393.15
393.15
393.15
393.15
393.15
393.15
393.15
393.15
393.15
393.15
393.15
393.15
393.15
393.15
393.15
393.15
393.15
393.15
393.15
393.15
393.15
393.15
393.15
393.15
393.15
393.15
393.15
393.15
393.15
393.15
393.15
393.15
393.15
393.15
393.15
393.15
393.15
393.15
393.15
393.15
393.15
393.15
393.15
393.15
393.15
393.15
393.15
393.15
393.15
393.15
393.15
393.15
393.15
393.15
393.15
393.15
393.15
393.15
393.15
393.15
393.15
393.15
393.15
393.15
393.15
393.15
393.15
393.15
393.15
393.15
393.15
393.15
393.15
393.15
393.15
393.15
393.15
393.15
393.15
393.15
393.15
393.15
393.15
393.15
393.15
393.15
393.15
393.15
393.15
393.15
393.15
393.15
393.15
393.15
393.15
393.15
393.15
393.15
393.15
393.15
393.15
393.15
393.15
393.15
393.15
393.15
393.15
393.15
393.15
393.15
393.15
393.15
393.15
393.15
393.15
393.15
393.15
393.15
393.15
393.15
393.15
393.15
393.15
393.15
393.15
393.15
393.15
393.15
393.15
393.15
393.15
393.15
393.15
393.15
393.15
393.15
393.15
393.15
393.15
393.15
393.15
393.15
393.15
393.15
393.15
393.15
393.15
393.15
393.15
393.15
393.15
393.15
393.15
393.15
393.15
393.15
393.15
393.15
393.15
393.15
393.15
393.15
393.15
393.15
393.15
393.15
393.15
393.15
393.15
393.15
393.15
393.15
393.15
393.15
393.15
393.15
393.15
393.15
393.15
393.15
393.15
393.15
393.15
393.15
393.15
393.15
393.15
393.15
393.15
393.15
393.15
393.15
393.15
393.15
393.15
393.15
393.15
393.15
393.15
393.15
393.15
393.15
393.15
393.15
393.15
393.15
393.15
393.15
393.15
393.15
393.15
393.15
393.15
393.15
393.15
393.15
393.15
393.15
393.15
393.15
393.15
393.15
393.15
393.15
393.15
393.15
393.15
393.15
393.15
393.15
393.15
393.15
393.15
393.15
393.15
393.15
393.15
393.15
393.15
393.15
393.15
393.15
393.15
393.15
393.15
393.15
393.15
393.15
393.15
393.15
393.15
393.15
393.15
393.15
393.15
393.15
393.15
393.15
393.15
393.15
393.15
393.15
393.15
393.15
393.15
393.15
393.15
393.15
393.15
393.15
393.15
393.15
393.15
393.15
393.15
393.15
393.15
393.15
393.15
393.15
393.15
393.15
393.15
393.15
393.15
393.15
393.15
393.15
393.15
393.15
393.15
393.15
393.15
393.15
393.15
393.15
393.15
393.15
393.15
393.15
393.15
393.15
393.15
393.15
393.15
393.15
393.15
393.15
393.15
393.15
393.15
393.15
393.15
393.15
393.15
393.15
393.15
393.15
393.15
393.15
393.15
393.15
393.15
393.15
393.15
393.15
393.15
393.15
393.15
393.15
393.15
393.15
393.15
393.15
393.15
393.15
393.15
393.15
393.15
393.15
393.15
393.15
393.15
393.15
393.15
393.15
393.15
393.15
393.15
393.15
393.15
393.15
393.15
393.15
393.15
393.15
393.15
393.15
393.15
393.15
393.15
393.15
393.15
393.15
393.15
393.15
393.15
393.15
393.15
393.15
393.15
393.15
393.15
393.15
393.15
393.15
393.15
393.15
393.15
393.15
393.15
393.15
393.15
393.15
393.15
393.15
393.15
393.15
393.15
393.15
393.15
393.15
393.15
393.15
393.15
393.15
393.15
393.15
393.15
393.15
393.15
393.15
393.15
393.15
393.15
393.15
393.15
393.15
393.15
393.15
393.15
393.15
393.15
393.15
393.15
393.15
393.15
393.15
393.15
393.15
393.15
393.15
393.15
393.15
393.15
393.15
393.15
393.15
393.15
393.15
393.15
393.15
393.15
393.15
393.15
393.15
393.15
393.15
393.15
393.15
393.15
393.15
393.15
393.15
393.15
393.15
393.15
393.15
393.15
393.15
393.15
393.15
393.15
393.15
393.15
393.15
393.15
393.15
393.15
393.15
393.15
393.15
393.15
393.15
393.15
393.15
393.15
393.15
393.15
393.15
393.15
393.15
393.15
393.15
393.15
393.15
393.15
393.15
393.15
393.15
393.15
393.15
393.15
393.15
393.15
393.15
393.15
393.15
393.15
393.15
393.15
393.15
393.15
393.15
393.15
393.15
393.15
393.15
393.15
393.15
393.15
393.15
393.15
393.15
393.15
393.15
393.15
393.15
393.15
393.15
393.15
393.15
393.15
393.15
393.15
393.15
393.15
393.15
393.15
393.15
393.15
393.15
393.15
393.15
393.15
393.15
393.15
393.15
393.15
393.15
393.15
393.15
393.15
393.15
393.15
393.15
393.15
393.15
393.15
393.15
393.15
393.15
393.15
393.15
393.15
393.15
393.15
393.15
393.15
393.15
393.15
393.15
393.15
393.15
393.15
393.15
393.15
393.15
393.15
393.15
393.15
393.15
393.15
393.15
393.15
393.15
393.15
393.15
393.15
393.15
393.15
393.15
393.15
393.15
393.15
393.15
393.15
393.15
393.15
393.15
393.15
393.15
393.15
393.15
393.15
393.15
393.15
393.15
393.15
393.15
393.15
393.15
393.15
393.15
393.15
393.15
393.15
393.15
393.15
393.15
393.15
393.15
393.15
393.15
393.15
393.15
393.15
393.15
393.15
393.15
393.15
393.15
393.15
393.15
393.15
393.15
393.15
393.15
393.15
393.15
393.15
393.15
393.15
393.15
393.15
393.15
393.15
393.15
393.15
393.15
393.15
393.15
393.15
393.15
393.15
393.15
393.15
393.15
393.15
393.15
393.15
393.15
393.15
393.15
393.15
393.15
393.15
393.15
393.15
393.15
393.15
393.15
393.15
393.15
393.15
393.15
393.15
393.15
393.15
393.15
393.15
393.15
393.15
393.15
393.15
393.15
393.15
393.15
393.15
393.15
393.15
393.15
393.15
393.15
393.15
393.15
393.15
393.15
393.15
393.15
393.15
393.15
393.15
393.15
393.15
393.15
393.15
393.15
393.15
393.15
393.15
393.15
393.15
393.15
393.15
393.15
393.15
393.15
393.15
393.15
393.15
393.15
393.15
393.15
393.15
393.15
393.15
393.15
393.15
393.15
393.15
393.15
393.15
393.15
393.15
393.15
393.15
393.15
393.15
393.15
393.15
393.15
393.15
393.15
393.15
393.15
393.15
393.15
393.15
393.15
393.15
393.15
393.15
393.15
393.15
393.15
393.15
393.15
393.15
393.15
393.15
393.15
393.15
393.15
393.15
393.15
393.15
393.15
393.15
393.15
393.15
393.15
393.15
393.15
393.15
393.15
393.15
393.15
393.15
393.15
393.15
393.15
393.15
393.15
393.15
393.15
393.15
393.15
393.15
393.15
393.15
393.15
393.15
393.15
393.15
393.15
393.15
393.15
393.15
393.15
393.15
393.15
393.15
393.15
393.15
393.15
393.15
393.15
393.15
393.15
393.15
393.15
393.15
393.15
393.15
393.15
393.15
393.15
393.15
393.15
393.15
393.15
393.15
393.15
393.15
393.15
393.15
393.15
393.15
393.15
393.15
393.15
393.15
393.15
393.15
393.15
393.15
393.15
393.15
393.15
393.15
393.15
393.15
393.15
393.15
393.15
393.15
393.15
393.15
393.15
393.15
393.15
393.15
393.15
393.15
393.15
393.15
393.15
393.15
393.15
393.15
393.15
393.15
393.15
393.15
393.15
393.15
393.15
393.15
393.15
393.15
393.15
393.15
393.15
393.15
393.15
393.15
393.15
393.15
393.15
393.15
393.15
393.15
393.15
393.15
393.15
393.15
393.15
393.15
393.15
393.15
393.15
393.15
393.15
393.15
393.15
393.15
393.15
393.15
393.15
393.15
393.15
393.15
393.15
393.15
393.15
393.15
393.15
393.15
393.15
393.15
393.15
393.15
393.15
393.15
393.15
393.15
393.15
393.15
393.15
393.15
393.15
393.15
393.15
393.15
393.15
393.15
393.15
393.15
393.15
393.15
393.15
393.15
393.15
393.15
393.15
393.15
393.15
393.15
393.15
393.15
393.15
393.15
393.15
393.15
393.15
393.15
393.15
393.15
393.15
393.15
393.15
393.15
393.15
393.15
393.15
393.15
393.15
393.15
393.15
393.15
393.15
393.15
393.15
393.15
393.15
393.15
393.15
393.15
393.15
393.15
393.15
393.15
393.15
393.15
393.15
393.15
393.15
393.15
393.15
393.15
393.15
393.15
393.15
393.15
393.15
393.15
393.15
393.15
393.15
393.15
393.15
393.15
393.15
393.15
393.15
393.15
393.15
393.15
393.15
393.15
393.15
393.15
393.15
393.15
393.15
393.15
393.15
393.15
393.15
393.15
393.15
393.15
393.15
393.15
393.15
393.15
393.15
393.15
393.15
393.15
393.15
393.15
393.15
393.15
393.15
393.15
393.15
393.15
393.15
393.15
393.15
393.15
393.15
393.15
393.15
393.15
393.15
393.15
393.15
393.15
393.15
393.15
393.15
393.15
393.15
393.15
393.15
393.15
393.15
393.15
393.15
393.15
393.15
393.15
393.15
393.15
393.15
393.15
393.15
393.15
393.15
393.15
393.15
393.15
393.15
393.15
393.15
393.15
393.15
393.15
393.15
393.15
393.15
393.15
393.15
393.15
393.15
393.15
393.15
393.15
393.15
393.15
393.15
393.15
393.15
393.15
393.15
393.15
393.15
393.15
393.15
393.15
393.15
393.15
393.15
393.15
393.15
393.15
393.15
393.15
393.15
393.15
393.15
393.15
393.15
393.15
393.15
393.15
393.15
393.15
393.15
393.15
393.15
393.15
393.15
393.15
393.15
393.15
393.15
393.15
393.15
393.15
393.15
393.15
393.15
393.15
393.15
393.15
393.15
393.15
393.15
393.15
393.15
393.15
393.15
393.15
393.15
393.15
393.15
393.15
393.15
393.15
393.15
393.15
393.15
393.15
393.15
393.15
393.15
393.15
393.15
393.15
393.15
393.15
393.15
393.15
393.15
393.15
393.15
393.15
393.15
393.15
393.15
393.15
393.15
393.15
393.15
393.15
393.15
393.15
393.15
393.15
393.15
393.15
393.15
393.15
393.15
393.15
393.15
393.15
393.15
393.15
393.15
393.15
393.15
393.15
393.15
393.15
393.15
393.15
393.15
393.15
393.15
393.15
393.15
393.15
393.15
393.15
393.15
393.15
393.15
393.15
393.15
393.15
393.15
393.15
393.15
393.15
393.15
393.15
393.15
393.15
393.15
393.15
393.15
393.15
393.15
393.15
393.15
393.15
393.15
393.15