/*--------------------------------*- C++ -*----------------------------------*\
| =========                 |                                                 |
| \\      /  F ield         | OpenFOAM: The Open Source CFD Toolbox           |
|  \\    /   O peration     | Version:  2.1.0                                 |
|   \\  /    A nd           | Web:      www.OpenFOAM.org                      |
|    \\/     M anipulation  |                                                 |
\*---------------------------------------------------------------------------*/
FoamFile
{
    version     2.0;
    format      ascii;
    class       volVectorField;
    location    "0.41";
    object      U;
}
// * * * * * * * * * * * * * * * * * * * * * * * * * * * * * * * * * * * * * //

dimensions      [0 1 -1 0 0 0 0];

internalField   nonuniform List<vector> 
6400
(
(-1.30155 -5.20336e-05 0)
(-1.30047 -0.000512751 0)
(-1.29815 -0.00080141 0)
(-1.29489 -0.000948367 0)
(-1.29116 -0.00103552 0)
(-1.28713 -0.00109412 0)
(-1.28289 -0.00113637 0)
(-1.2785 -0.00116955 0)
(-1.27399 -0.00119753 0)
(-1.26936 -0.00122272 0)
(-1.26463 -0.00124644 0)
(-1.25981 -0.0012695 0)
(-1.25488 -0.00129238 0)
(-1.24987 -0.00131528 0)
(-1.24475 -0.00133846 0)
(-1.23954 -0.00136191 0)
(-1.23424 -0.00138579 0)
(-1.22883 -0.00141003 0)
(-1.22332 -0.00143474 0)
(-1.21771 -0.00145979 0)
(-1.212 -0.00148524 0)
(-1.20618 -0.00151102 0)
(-1.20025 -0.00153742 0)
(-1.19422 -0.00156419 0)
(-1.18807 -0.00159116 0)
(-1.18182 -0.00161913 0)
(-1.17544 -0.00164876 0)
(-1.16895 -0.00167936 0)
(-1.16232 -0.00171092 0)
(-1.15557 -0.0017434 0)
(-1.14869 -0.00177696 0)
(-1.14166 -0.0018116 0)
(-1.1345 -0.00184749 0)
(-1.12718 -0.00188466 0)
(-1.11972 -0.00192325 0)
(-1.11209 -0.00196324 0)
(-1.10431 -0.00200478 0)
(-1.09635 -0.00204789 0)
(-1.08822 -0.00209272 0)
(-1.0799 -0.00213946 0)
(-1.0714 -0.00218832 0)
(-1.06269 -0.0022393 0)
(-1.05377 -0.00229251 0)
(-1.04464 -0.00234804 0)
(-1.03529 -0.00240595 0)
(-1.02569 -0.00246626 0)
(-1.01586 -0.00252899 0)
(-1.00577 -0.00259403 0)
(-0.995414 -0.00266124 0)
(-0.984789 -0.0027309 0)
(-0.973885 -0.00280165 0)
(-0.962698 -0.00287311 0)
(-0.951219 -0.00294929 0)
(-0.939426 -0.00303104 0)
(-0.927301 -0.00311641 0)
(-0.914837 -0.00320277 0)
(-0.902037 -0.00328664 0)
(-0.888909 -0.00336793 0)
(-0.875459 -0.00344875 0)
(-0.861686 -0.00353084 0)
(-0.847584 -0.00361491 0)
(-0.833146 -0.0037009 0)
(-0.818362 -0.0037896 0)
(-0.803219 -0.00388172 0)
(-0.787706 -0.00397739 0)
(-0.771805 -0.00407722 0)
(-0.755501 -0.00418153 0)
(-0.738774 -0.00429111 0)
(-0.721603 -0.0044064 0)
(-0.703963 -0.00452782 0)
(-0.685832 -0.00465572 0)
(-0.667181 -0.00479077 0)
(-0.647981 -0.00493344 0)
(-0.628202 -0.00508461 0)
(-0.607807 -0.00524521 0)
(-0.586757 -0.00541652 0)
(-0.565007 -0.00560021 0)
(-0.542504 -0.00579829 0)
(-0.519185 -0.00601361 0)
(-0.494976 -0.00625042 0)
(-0.46978 -0.00651398 0)
(-0.443479 -0.00681083 0)
(-0.415927 -0.00714938 0)
(-0.38694 -0.00753885 0)
(-0.356306 -0.0079863 0)
(-0.32379 -0.00849429 0)
(-0.289165 -0.00905818 0)
(-0.252253 -0.00965744 0)
(-0.213015 -0.0102408 0)
(-0.171735 -0.010697 0)
(-0.129359 -0.0107992 0)
(-0.0881558 -0.010101 0)
(-0.0522858 -0.00808658 0)
(-0.0269138 -0.00476444 0)
(-0.0156434 -0.000935785 0)
(-0.0201797 0.00321165 0)
(-0.0489655 0.0113438 0)
(-0.129069 0.029209 0)
(-0.328851 0.0711585 0)
(-0.948416 0.198981 0)
(-1.56908 -0.000348251 0)
(-1.56602 -0.00167975 0)
(-1.56394 -0.00243634 0)
(-1.56053 -0.00283916 0)
(-1.55677 -0.0030834 0)
(-1.55274 -0.0032481 0)
(-1.54855 -0.00336699 0)
(-1.54421 -0.00346022 0)
(-1.53978 -0.00353884 0)
(-1.53525 -0.0036095 0)
(-1.53063 -0.00367609 0)
(-1.52594 -0.00374076 0)
(-1.52116 -0.00380502 0)
(-1.51629 -0.00386939 0)
(-1.51135 -0.00393465 0)
(-1.50633 -0.00400075 0)
(-1.50121 -0.0040682 0)
(-1.49602 -0.00413676 0)
(-1.49073 -0.00420678 0)
(-1.48536 -0.00427785 0)
(-1.47989 -0.00435017 0)
(-1.47433 -0.00442338 0)
(-1.46868 -0.00449822 0)
(-1.46293 -0.00457402 0)
(-1.45709 -0.00464957 0)
(-1.45115 -0.00472718 0)
(-1.44512 -0.00480909 0)
(-1.43899 -0.00489314 0)
(-1.43276 -0.00497943 0)
(-1.42644 -0.005068 0)
(-1.42001 -0.00515922 0)
(-1.41347 -0.00525317 0)
(-1.40683 -0.00535022 0)
(-1.40008 -0.0054505 0)
(-1.39321 -0.00555432 0)
(-1.38624 -0.0056617 0)
(-1.37914 -0.00577297 0)
(-1.37192 -0.00588834 0)
(-1.36458 -0.00600808 0)
(-1.3571 -0.00613237 0)
(-1.34949 -0.00626192 0)
(-1.34175 -0.00639681 0)
(-1.33386 -0.00653732 0)
(-1.32583 -0.0066838 0)
(-1.31764 -0.00683644 0)
(-1.3093 -0.00699543 0)
(-1.30079 -0.00716098 0)
(-1.2921 -0.00733308 0)
(-1.28324 -0.00751153 0)
(-1.27418 -0.00769709 0)
(-1.26492 -0.00788728 0)
(-1.25547 -0.00807883 0)
(-1.24582 -0.00827546 0)
(-1.23599 -0.00847851 0)
(-1.22599 -0.00868629 0)
(-1.21584 -0.00889655 0)
(-1.20553 -0.00910476 0)
(-1.19503 -0.0093098 0)
(-1.18436 -0.00951453 0)
(-1.1735 -0.00972219 0)
(-1.16247 -0.00993432 0)
(-1.15124 -0.0101512 0)
(-1.13983 -0.010374 0)
(-1.12822 -0.0106041 0)
(-1.11642 -0.0108421 0)
(-1.10442 -0.0110891 0)
(-1.09222 -0.0113462 0)
(-1.07982 -0.011615 0)
(-1.0672 -0.0118968 0)
(-1.05436 -0.0121931 0)
(-1.04129 -0.0125051 0)
(-1.02798 -0.0128349 0)
(-1.01441 -0.0131843 0)
(-1.00056 -0.0135559 0)
(-0.986408 -0.0139527 0)
(-0.971924 -0.0143788 0)
(-0.957074 -0.0148391 0)
(-0.941816 -0.0153392 0)
(-0.926102 -0.0158866 0)
(-0.909874 -0.0164924 0)
(-0.893065 -0.0171695 0)
(-0.875597 -0.0179333 0)
(-0.857383 -0.0188025 0)
(-0.838327 -0.0197977 0)
(-0.818326 -0.0209346 0)
(-0.797272 -0.0222183 0)
(-0.775071 -0.0236332 0)
(-0.751671 -0.0251234 0)
(-0.727112 -0.0265576 0)
(-0.701595 -0.027665 0)
(-0.67558 -0.0279212 0)
(-0.64984 -0.0263716 0)
(-0.625746 -0.0217812 0)
(-0.606213 -0.0135886 0)
(-0.600239 -0.00101657 0)
(-0.615426 0.0132039 0)
(-0.663814 0.0398245 0)
(-0.767878 0.0921033 0)
(-0.970875 0.204413 0)
(-1.4596 0.526472 0)
(-1.71897 -0.000930392 0)
(-1.715 -0.00291822 0)
(-1.71376 -0.0040078 0)
(-1.7109 -0.00461547 0)
(-1.70773 -0.00499036 0)
(-1.70434 -0.00524324 0)
(-1.70082 -0.00542468 0)
(-1.69719 -0.00556645 0)
(-1.69348 -0.00568498 0)
(-1.68971 -0.00579125 0)
(-1.68586 -0.00589077 0)
(-1.68197 -0.0059874 0)
(-1.67801 -0.0060831 0)
(-1.674 -0.00617915 0)
(-1.66993 -0.00627643 0)
(-1.66582 -0.00637528 0)
(-1.66163 -0.00647622 0)
(-1.6574 -0.00657922 0)
(-1.65309 -0.00668469 0)
(-1.64873 -0.00679235 0)
(-1.6443 -0.00690235 0)
(-1.6398 -0.0070144 0)
(-1.63522 -0.00712948 0)
(-1.63057 -0.00724703 0)
(-1.62583 -0.00736438 0)
(-1.62103 -0.00748242 0)
(-1.61614 -0.00760343 0)
(-1.61119 -0.00772587 0)
(-1.60618 -0.00785062 0)
(-1.60111 -0.00797806 0)
(-1.59597 -0.00810867 0)
(-1.59077 -0.00824266 0)
(-1.5855 -0.0083804 0)
(-1.58018 -0.0085221 0)
(-1.57479 -0.00866806 0)
(-1.56934 -0.00881835 0)
(-1.56383 -0.00897327 0)
(-1.55826 -0.00913319 0)
(-1.55263 -0.00929846 0)
(-1.54693 -0.00946874 0)
(-1.54118 -0.00964503 0)
(-1.53537 -0.00982753 0)
(-1.5295 -0.0100164 0)
(-1.52358 -0.0102122 0)
(-1.51761 -0.010415 0)
(-1.51159 -0.0106253 0)
(-1.50552 -0.0108431 0)
(-1.49941 -0.0110688 0)
(-1.49326 -0.011302 0)
(-1.48707 -0.0115429 0)
(-1.48084 -0.0117897 0)
(-1.47459 -0.0120385 0)
(-1.46833 -0.0122871 0)
(-1.46204 -0.0125342 0)
(-1.45575 -0.0127805 0)
(-1.44946 -0.0130282 0)
(-1.44319 -0.0132777 0)
(-1.43691 -0.0135272 0)
(-1.43064 -0.0137765 0)
(-1.42436 -0.0140276 0)
(-1.41811 -0.0142814 0)
(-1.41187 -0.0145382 0)
(-1.40566 -0.0147991 0)
(-1.3995 -0.0150645 0)
(-1.3934 -0.015335 0)
(-1.38737 -0.0156117 0)
(-1.38143 -0.0158955 0)
(-1.37559 -0.0161875 0)
(-1.36988 -0.0164894 0)
(-1.36432 -0.0168029 0)
(-1.35892 -0.0171298 0)
(-1.3537 -0.017473 0)
(-1.34869 -0.0178348 0)
(-1.34391 -0.0182193 0)
(-1.33936 -0.0186313 0)
(-1.33508 -0.0190767 0)
(-1.33106 -0.0195633 0)
(-1.32732 -0.0200999 0)
(-1.32385 -0.020697 0)
(-1.32065 -0.0213703 0)
(-1.31771 -0.0221377 0)
(-1.31499 -0.0230186 0)
(-1.31246 -0.0240352 0)
(-1.3101 -0.0252108 0)
(-1.30786 -0.0265631 0)
(-1.30571 -0.0280962 0)
(-1.30363 -0.0297838 0)
(-1.3016 -0.0315436 0)
(-1.2997 -0.0331962 0)
(-1.29807 -0.0343941 0)
(-1.29696 -0.0345098 0)
(-1.29672 -0.0324969 0)
(-1.29785 -0.0268617 0)
(-1.30186 -0.0160929 0)
(-1.31076 0.0021316 0)
(-1.32786 0.0262767 0)
(-1.36729 0.0695801 0)
(-1.44353 0.14971 0)
(-1.58745 0.311541 0)
(-1.85845 0.719455 0)
(-1.854 -0.00160369 0)
(-1.84975 -0.00392554 0)
(-1.84954 -0.00525358 0)
(-1.84757 -0.00602321 0)
(-1.84537 -0.00650258 0)
(-1.84302 -0.0068238 0)
(-1.84055 -0.00705112 0)
(-1.83804 -0.00722653 0)
(-1.83545 -0.00737049 0)
(-1.83286 -0.00749822 0)
(-1.83021 -0.00761608 0)
(-1.82756 -0.00772993 0)
(-1.82487 -0.00784162 0)
(-1.82219 -0.00795356 0)
(-1.81947 -0.00806628 0)
(-1.81675 -0.00818084 0)
(-1.814 -0.00829743 0)
(-1.81126 -0.00841654 0)
(-1.80849 -0.00853836 0)
(-1.80571 -0.00866305 0)
(-1.80292 -0.00879054 0)
(-1.80013 -0.00892072 0)
(-1.79732 -0.00905448 0)
(-1.7945 -0.00919122 0)
(-1.79167 -0.00932946 0)
(-1.78886 -0.00946798 0)
(-1.78602 -0.00960597 0)
(-1.78318 -0.00974379 0)
(-1.78033 -0.00988295 0)
(-1.77748 -0.0100242 0)
(-1.77464 -0.010168 0)
(-1.7718 -0.0103145 0)
(-1.76896 -0.0104642 0)
(-1.76614 -0.0106171 0)
(-1.76333 -0.0107733 0)
(-1.76053 -0.010933 0)
(-1.75776 -0.011096 0)
(-1.75502 -0.0112627 0)
(-1.7523 -0.0114334 0)
(-1.74963 -0.0116076 0)
(-1.74699 -0.011786 0)
(-1.74441 -0.0119683 0)
(-1.74188 -0.0121547 0)
(-1.73942 -0.0123454 0)
(-1.73703 -0.0125402 0)
(-1.73472 -0.012739 0)
(-1.73251 -0.0129419 0)
(-1.73041 -0.0131485 0)
(-1.72843 -0.0133583 0)
(-1.72659 -0.0135702 0)
(-1.7249 -0.0137823 0)
(-1.72338 -0.0139953 0)
(-1.72202 -0.0142087 0)
(-1.72082 -0.0144184 0)
(-1.71978 -0.0146234 0)
(-1.71889 -0.0148258 0)
(-1.71818 -0.0150279 0)
(-1.71765 -0.0152285 0)
(-1.71732 -0.0154259 0)
(-1.7172 -0.01562 0)
(-1.7173 -0.0158102 0)
(-1.71764 -0.0159965 0)
(-1.71825 -0.0161797 0)
(-1.71912 -0.0163599 0)
(-1.72029 -0.0165375 0)
(-1.72176 -0.0167132 0)
(-1.72357 -0.0168876 0)
(-1.72571 -0.0170618 0)
(-1.72821 -0.0172371 0)
(-1.73108 -0.0174157 0)
(-1.73433 -0.0176 0)
(-1.73797 -0.0177935 0)
(-1.74201 -0.0179999 0)
(-1.74645 -0.0182247 0)
(-1.75127 -0.0184748 0)
(-1.75648 -0.0187585 0)
(-1.76204 -0.0190869 0)
(-1.76795 -0.0194723 0)
(-1.77415 -0.019928 0)
(-1.78061 -0.0204738 0)
(-1.78729 -0.0211325 0)
(-1.79412 -0.0219259 0)
(-1.80104 -0.0228781 0)
(-1.80801 -0.0240121 0)
(-1.81497 -0.0253441 0)
(-1.82188 -0.0268737 0)
(-1.82872 -0.0285642 0)
(-1.8355 -0.0303142 0)
(-1.84227 -0.0319156 0)
(-1.84912 -0.0329866 0)
(-1.85614 -0.0328763 0)
(-1.86335 -0.0305521 0)
(-1.87073 -0.0244663 0)
(-1.87881 -0.0127287 0)
(-1.88807 0.00642473 0)
(-1.89922 0.0363852 0)
(-1.92193 0.0893046 0)
(-1.96324 0.185935 0)
(-2.03253 0.375453 0)
(-2.13344 0.778198 0)
(-1.98972 -0.00218493 0)
(-1.98584 -0.00457035 0)
(-1.98676 -0.00600521 0)
(-1.98602 -0.00686913 0)
(-1.98526 -0.00741311 0)
(-1.98437 -0.00777245 0)
(-1.98349 -0.00802246 0)
(-1.98257 -0.00820981 0)
(-1.98166 -0.00835964 0)
(-1.98077 -0.00848876 0)
(-1.97989 -0.00860537 0)
(-1.97904 -0.00871575 0)
(-1.97821 -0.0088225 0)
(-1.97743 -0.0089281 0)
(-1.97667 -0.00903334 0)
(-1.97596 -0.00913925 0)
(-1.97529 -0.00924604 0)
(-1.97467 -0.00935413 0)
(-1.97409 -0.00946372 0)
(-1.97359 -0.00957499 0)
(-1.97313 -0.00968757 0)
(-1.97275 -0.00980087 0)
(-1.97243 -0.00991571 0)
(-1.9722 -0.0100313 0)
(-1.97205 -0.0101484 0)
(-1.972 -0.0102679 0)
(-1.97201 -0.0103871 0)
(-1.9721 -0.0105053 0)
(-1.97227 -0.0106233 0)
(-1.97252 -0.0107418 0)
(-1.97285 -0.0108611 0)
(-1.97328 -0.0109814 0)
(-1.9738 -0.0111028 0)
(-1.97442 -0.0112254 0)
(-1.97514 -0.0113492 0)
(-1.97597 -0.0114739 0)
(-1.97692 -0.0115995 0)
(-1.978 -0.0117259 0)
(-1.9792 -0.0118532 0)
(-1.98053 -0.0119812 0)
(-1.98201 -0.0121101 0)
(-1.98363 -0.0122394 0)
(-1.98541 -0.012369 0)
(-1.98735 -0.0124988 0)
(-1.98946 -0.0126286 0)
(-1.99175 -0.012758 0)
(-1.99422 -0.0128868 0)
(-1.99688 -0.0130146 0)
(-1.99973 -0.0131406 0)
(-2.00278 -0.0132637 0)
(-2.00604 -0.0133825 0)
(-2.0095 -0.0134996 0)
(-2.01317 -0.0136172 0)
(-2.01706 -0.0137317 0)
(-2.02116 -0.0138401 0)
(-2.02549 -0.0139428 0)
(-2.03005 -0.0140406 0)
(-2.03483 -0.0141334 0)
(-2.03985 -0.0142202 0)
(-2.04509 -0.0143005 0)
(-2.05057 -0.0143729 0)
(-2.05628 -0.0144371 0)
(-2.06222 -0.0144942 0)
(-2.06839 -0.0145449 0)
(-2.07479 -0.0145903 0)
(-2.0814 -0.0146311 0)
(-2.08822 -0.0146686 0)
(-2.09524 -0.0147042 0)
(-2.10246 -0.0147399 0)
(-2.10987 -0.0147785 0)
(-2.11745 -0.0148231 0)
(-2.12519 -0.0148782 0)
(-2.13308 -0.0149489 0)
(-2.14111 -0.0150419 0)
(-2.14926 -0.0151656 0)
(-2.15753 -0.01533 0)
(-2.16589 -0.0155478 0)
(-2.17434 -0.0158351 0)
(-2.18286 -0.0162045 0)
(-2.19144 -0.016678 0)
(-2.20007 -0.0172824 0)
(-2.20872 -0.0180387 0)
(-2.2174 -0.0189709 0)
(-2.22609 -0.0201001 0)
(-2.23479 -0.0214387 0)
(-2.2435 -0.0229805 0)
(-2.25224 -0.0246816 0)
(-2.26101 -0.0264298 0)
(-2.26984 -0.0280066 0)
(-2.27872 -0.0290318 0)
(-2.28757 -0.0288833 0)
(-2.29614 -0.0266166 0)
(-2.30388 -0.0207793 0)
(-2.3109 -0.0095633 0)
(-2.31617 0.00920097 0)
(-2.31893 0.0408908 0)
(-2.32355 0.0972259 0)
(-2.32962 0.19941 0)
(-2.32768 0.392823 0)
(-2.31014 0.744576 0)
(-2.1328 -0.00250752 0)
(-2.12998 -0.00472862 0)
(-2.13209 -0.00611401 0)
(-2.13291 -0.00697222 0)
(-2.13388 -0.00751569 0)
(-2.13488 -0.00786718 0)
(-2.13597 -0.00810513 0)
(-2.13709 -0.00827474 0)
(-2.1383 -0.00840422 0)
(-2.13957 -0.00850952 0)
(-2.14091 -0.00860058 0)
(-2.14233 -0.00868294 0)
(-2.14383 -0.0087602 0)
(-2.14541 -0.00883421 0)
(-2.14707 -0.00890636 0)
(-2.14883 -0.00897714 0)
(-2.15068 -0.00904709 0)
(-2.15263 -0.0091162 0)
(-2.15468 -0.00918478 0)
(-2.15684 -0.00925318 0)
(-2.1591 -0.0093207 0)
(-2.16148 -0.00938575 0)
(-2.16397 -0.0094499 0)
(-2.16658 -0.00951343 0)
(-2.16932 -0.00957738 0)
(-2.17217 -0.00964364 0)
(-2.17515 -0.00971045 0)
(-2.17827 -0.00977578 0)
(-2.1815 -0.0098397 0)
(-2.18488 -0.00990251 0)
(-2.18838 -0.00996447 0)
(-2.19203 -0.0100257 0)
(-2.19581 -0.0100864 0)
(-2.19974 -0.0101465 0)
(-2.2038 -0.0102061 0)
(-2.20801 -0.0102649 0)
(-2.21236 -0.0103229 0)
(-2.21686 -0.0103801 0)
(-2.22151 -0.0104364 0)
(-2.2263 -0.0104916 0)
(-2.23123 -0.0105463 0)
(-2.23631 -0.0105999 0)
(-2.24154 -0.0106524 0)
(-2.2469 -0.0107039 0)
(-2.2524 -0.0107542 0)
(-2.25805 -0.0108032 0)
(-2.26382 -0.0108507 0)
(-2.26973 -0.0108966 0)
(-2.27576 -0.0109404 0)
(-2.28191 -0.0109815 0)
(-2.28818 -0.0110196 0)
(-2.29456 -0.0110559 0)
(-2.30104 -0.0110916 0)
(-2.30763 -0.0111245 0)
(-2.31432 -0.0111529 0)
(-2.3211 -0.0111764 0)
(-2.32796 -0.0111951 0)
(-2.3349 -0.0112095 0)
(-2.34191 -0.0112201 0)
(-2.34898 -0.0112261 0)
(-2.35611 -0.0112252 0)
(-2.3633 -0.0112174 0)
(-2.37053 -0.011204 0)
(-2.37781 -0.011186 0)
(-2.38513 -0.011165 0)
(-2.39249 -0.0111415 0)
(-2.39988 -0.0111172 0)
(-2.40731 -0.0110936 0)
(-2.41478 -0.0110728 0)
(-2.42227 -0.0110575 0)
(-2.4298 -0.0110509 0)
(-2.43736 -0.0110574 0)
(-2.44496 -0.0110821 0)
(-2.45259 -0.0111317 0)
(-2.46027 -0.0112145 0)
(-2.46799 -0.0113406 0)
(-2.47576 -0.0115224 0)
(-2.48357 -0.0117772 0)
(-2.49143 -0.0121164 0)
(-2.49937 -0.0125592 0)
(-2.50738 -0.0131321 0)
(-2.51548 -0.0138571 0)
(-2.52369 -0.0147578 0)
(-2.53201 -0.0158534 0)
(-2.54046 -0.0171538 0)
(-2.54906 -0.0186513 0)
(-2.55782 -0.0203024 0)
(-2.56673 -0.0219965 0)
(-2.57578 -0.0235236 0)
(-2.58489 -0.0245344 0)
(-2.59383 -0.0244747 0)
(-2.60217 -0.0225262 0)
(-2.60901 -0.0174918 0)
(-2.61415 -0.00767758 0)
(-2.6154 0.00951095 0)
(-2.6102 0.0397331 0)
(-2.59859 0.0938026 0)
(-2.57305 0.191631 0)
(-2.51156 0.369088 0)
(-2.41547 0.652765 0)
(-2.27999 -0.0024656 0)
(-2.27846 -0.00431523 0)
(-2.28171 -0.00549924 0)
(-2.28411 -0.00624672 0)
(-2.28675 -0.00671755 0)
(-2.28959 -0.00701279 0)
(-2.29253 -0.00720309 0)
(-2.29562 -0.007328 0)
(-2.29879 -0.00741441 0)
(-2.30207 -0.00747664 0)
(-2.30543 -0.00752441 0)
(-2.30891 -0.00756264 0)
(-2.31245 -0.00759511 0)
(-2.31612 -0.00762333 0)
(-2.31985 -0.00764894 0)
(-2.3237 -0.00767219 0)
(-2.32762 -0.00769386 0)
(-2.33166 -0.00771377 0)
(-2.33577 -0.00773236 0)
(-2.33999 -0.00775017 0)
(-2.34429 -0.00776666 0)
(-2.34869 -0.00777916 0)
(-2.35318 -0.00778861 0)
(-2.35777 -0.00779622 0)
(-2.36246 -0.00780334 0)
(-2.36726 -0.0078111 0)
(-2.37216 -0.00781872 0)
(-2.37718 -0.00782497 0)
(-2.38229 -0.00782984 0)
(-2.38751 -0.00783343 0)
(-2.39282 -0.00783621 0)
(-2.39823 -0.00783829 0)
(-2.40374 -0.00784023 0)
(-2.40934 -0.00784194 0)
(-2.41503 -0.00784379 0)
(-2.4208 -0.00784552 0)
(-2.42665 -0.00784754 0)
(-2.43259 -0.00784973 0)
(-2.43858 -0.0078524 0)
(-2.44465 -0.00785531 0)
(-2.45078 -0.00785906 0)
(-2.45696 -0.00786351 0)
(-2.46319 -0.00786867 0)
(-2.46946 -0.00787467 0)
(-2.47577 -0.0078816 0)
(-2.48211 -0.00788925 0)
(-2.48848 -0.00789748 0)
(-2.49488 -0.00790617 0)
(-2.50129 -0.0079153 0)
(-2.50771 -0.00792392 0)
(-2.51414 -0.00793223 0)
(-2.52058 -0.00794061 0)
(-2.52701 -0.00794967 0)
(-2.53345 -0.00795784 0)
(-2.53987 -0.00796385 0)
(-2.5463 -0.00796713 0)
(-2.55271 -0.00796714 0)
(-2.55912 -0.00796429 0)
(-2.56552 -0.00796022 0)
(-2.5719 -0.00795384 0)
(-2.57827 -0.00794066 0)
(-2.58464 -0.00792059 0)
(-2.591 -0.00789475 0)
(-2.59736 -0.00786417 0)
(-2.60373 -0.00783032 0)
(-2.6101 -0.00779331 0)
(-2.61649 -0.0077544 0)
(-2.6229 -0.00771489 0)
(-2.62933 -0.00767641 0)
(-2.6358 -0.00764134 0)
(-2.64232 -0.00761271 0)
(-2.64888 -0.00759432 0)
(-2.6555 -0.0075911 0)
(-2.6622 -0.00760957 0)
(-2.66897 -0.00765784 0)
(-2.67584 -0.0077457 0)
(-2.68281 -0.00788539 0)
(-2.6899 -0.00809193 0)
(-2.6971 -0.00838039 0)
(-2.7045 -0.00876936 0)
(-2.71201 -0.00927951 0)
(-2.7197 -0.00993407 0)
(-2.72756 -0.0107563 0)
(-2.73563 -0.0117643 0)
(-2.74393 -0.0129667 0)
(-2.75249 -0.0143569 0)
(-2.7613 -0.0158995 0)
(-2.77035 -0.0174948 0)
(-2.77958 -0.018953 0)
(-2.78884 -0.0199753 0)
(-2.79781 -0.0201018 0)
(-2.8059 -0.0186658 0)
(-2.81203 -0.0147941 0)
(-2.81543 -0.00696346 0)
(-2.81348 0.00746978 0)
(-2.80134 0.0335913 0)
(-2.77566 0.0805313 0)
(-2.72335 0.165282 0)
(-2.61581 0.313022 0)
(-2.47002 0.525854 0)
(-2.41257 -0.0020753 0)
(-2.41202 -0.00339401 0)
(-2.41601 -0.00427784 0)
(-2.41946 -0.00484076 0)
(-2.42311 -0.00518991 0)
(-2.42711 -0.00539987 0)
(-2.43116 -0.00552512 0)
(-2.43542 -0.00559682 0)
(-2.43969 -0.0056364 0)
(-2.44411 -0.00565562 0)
(-2.44853 -0.00566241 0)
(-2.45308 -0.00566089 0)
(-2.45762 -0.00565429 0)
(-2.46229 -0.00564395 0)
(-2.46695 -0.00563136 0)
(-2.47173 -0.00561682 0)
(-2.47651 -0.00560107 0)
(-2.48139 -0.00558401 0)
(-2.48627 -0.00556612 0)
(-2.49126 -0.00554718 0)
(-2.49624 -0.00552716 0)
(-2.50133 -0.00550503 0)
(-2.50644 -0.00548058 0)
(-2.51161 -0.00545376 0)
(-2.51677 -0.00542654 0)
(-2.52201 -0.00539986 0)
(-2.52724 -0.00537385 0)
(-2.53253 -0.00534772 0)
(-2.53782 -0.00532173 0)
(-2.54315 -0.0052957 0)
(-2.54848 -0.00527052 0)
(-2.55384 -0.00524595 0)
(-2.55919 -0.00522309 0)
(-2.56457 -0.00520154 0)
(-2.56994 -0.00518215 0)
(-2.57532 -0.00516425 0)
(-2.58068 -0.00514872 0)
(-2.58606 -0.00513487 0)
(-2.59142 -0.00512361 0)
(-2.59678 -0.00511463 0)
(-2.60212 -0.00510813 0)
(-2.60746 -0.00510405 0)
(-2.61277 -0.00510232 0)
(-2.61809 -0.00510301 0)
(-2.62338 -0.00510606 0)
(-2.62866 -0.00511118 0)
(-2.63393 -0.00511799 0)
(-2.6392 -0.00512621 0)
(-2.64444 -0.00513589 0)
(-2.64968 -0.00514593 0)
(-2.65492 -0.00515639 0)
(-2.66015 -0.00516702 0)
(-2.66538 -0.005178 0)
(-2.67061 -0.00518798 0)
(-2.67584 -0.00519563 0)
(-2.68109 -0.00520024 0)
(-2.68634 -0.00520072 0)
(-2.69162 -0.00519687 0)
(-2.69691 -0.00519192 0)
(-2.70223 -0.00518589 0)
(-2.70756 -0.00516984 0)
(-2.71294 -0.0051437 0)
(-2.71835 -0.00510942 0)
(-2.72381 -0.00506809 0)
(-2.72931 -0.00502051 0)
(-2.73487 -0.00496703 0)
(-2.7405 -0.00490833 0)
(-2.7462 -0.00484531 0)
(-2.75198 -0.00477935 0)
(-2.75784 -0.00471249 0)
(-2.7638 -0.0046474 0)
(-2.76987 -0.00458757 0)
(-2.77605 -0.00453779 0)
(-2.78236 -0.00450412 0)
(-2.78881 -0.00449444 0)
(-2.79541 -0.00451799 0)
(-2.80218 -0.00458667 0)
(-2.80912 -0.00471303 0)
(-2.81625 -0.00491553 0)
(-2.82361 -0.00521592 0)
(-2.83118 -0.00562988 0)
(-2.83898 -0.00617873 0)
(-2.84704 -0.00688426 0)
(-2.85538 -0.00776394 0)
(-2.86402 -0.00882606 0)
(-2.87298 -0.0100664 0)
(-2.88226 -0.0114656 0)
(-2.8918 -0.012945 0)
(-2.9015 -0.0143384 0)
(-2.91117 -0.0154147 0)
(-2.9204 -0.0158239 0)
(-2.92849 -0.0150744 0)
(-2.93426 -0.0125809 0)
(-2.93621 -0.00720264 0)
(-2.93212 0.00336198 0)
(-2.91436 0.0232561 0)
(-2.87761 0.0590768 0)
(-2.80458 0.123794 0)
(-2.66449 0.233331 0)
(-2.48907 0.378951 0)
(-2.51225 -0.00138284 0)
(-2.51257 -0.00215995 0)
(-2.5167 -0.00270885 0)
(-2.52057 -0.00305751 0)
(-2.52453 -0.00326959 0)
(-2.52895 -0.00339241 0)
(-2.53327 -0.00345931 0)
(-2.53787 -0.00349112 0)
(-2.54232 -0.00350123 0)
(-2.54697 -0.00349742 0)
(-2.55147 -0.00348511 0)
(-2.55613 -0.00346699 0)
(-2.56063 -0.00344531 0)
(-2.56527 -0.00342111 0)
(-2.56977 -0.00339544 0)
(-2.57439 -0.00336858 0)
(-2.57888 -0.00334106 0)
(-2.58347 -0.00331284 0)
(-2.58795 -0.00328425 0)
(-2.59251 -0.00325435 0)
(-2.59696 -0.00322346 0)
(-2.60149 -0.00319354 0)
(-2.60591 -0.00316494 0)
(-2.61039 -0.00313623 0)
(-2.61477 -0.00310826 0)
(-2.61918 -0.00308148 0)
(-2.6235 -0.00305623 0)
(-2.62785 -0.00303193 0)
(-2.63211 -0.00300885 0)
(-2.6364 -0.00298661 0)
(-2.6406 -0.00296617 0)
(-2.64482 -0.00294703 0)
(-2.64897 -0.00293034 0)
(-2.65314 -0.0029155 0)
(-2.65723 -0.0029034 0)
(-2.66134 -0.00289316 0)
(-2.6654 -0.00288565 0)
(-2.66946 -0.0028798 0)
(-2.67349 -0.00287673 0)
(-2.67751 -0.0028758 0)
(-2.68151 -0.00287722 0)
(-2.68551 -0.00288073 0)
(-2.68949 -0.00288592 0)
(-2.69348 -0.00289307 0)
(-2.69746 -0.00290183 0)
(-2.70145 -0.00291179 0)
(-2.70544 -0.00292254 0)
(-2.70945 -0.00293374 0)
(-2.71346 -0.0029448 0)
(-2.7175 -0.00295531 0)
(-2.72155 -0.00296491 0)
(-2.72564 -0.00297318 0)
(-2.72975 -0.00297977 0)
(-2.7339 -0.00298359 0)
(-2.73808 -0.0029834 0)
(-2.74231 -0.0029783 0)
(-2.74658 -0.00296714 0)
(-2.75092 -0.00294831 0)
(-2.7553 -0.0029268 0)
(-2.75975 -0.00290805 0)
(-2.76426 -0.00287369 0)
(-2.76883 -0.00282468 0)
(-2.77348 -0.002765 0)
(-2.77822 -0.00269602 0)
(-2.78305 -0.00261779 0)
(-2.78797 -0.00253078 0)
(-2.79299 -0.00243533 0)
(-2.79812 -0.00233193 0)
(-2.80336 -0.00222171 0)
(-2.80873 -0.00210634 0)
(-2.81424 -0.0019882 0)
(-2.81988 -0.00187043 0)
(-2.82568 -0.00175753 0)
(-2.83164 -0.00165517 0)
(-2.83778 -0.0015707 0)
(-2.84411 -0.00151306 0)
(-2.85065 -0.00149239 0)
(-2.85741 -0.00152317 0)
(-2.86441 -0.00162218 0)
(-2.87166 -0.00181093 0)
(-2.87919 -0.00210311 0)
(-2.88704 -0.00252001 0)
(-2.89521 -0.00308187 0)
(-2.90375 -0.00380593 0)
(-2.91267 -0.00470236 0)
(-2.92201 -0.00576753 0)
(-2.93174 -0.00700476 0)
(-2.9418 -0.00837335 0)
(-2.95208 -0.00972005 0)
(-2.96233 -0.0109 0)
(-2.97212 -0.0116796 0)
(-2.9807 -0.0117597 0)
(-2.98688 -0.010786 0)
(-2.98868 -0.00815997 0)
(-2.9837 -0.00226881 0)
(-2.96426 0.00965534 0)
(-2.92063 0.0314705 0)
(-2.83498 0.0711522 0)
(-2.67562 0.137391 0)
(-2.48521 0.221011 0)
(-2.55882 -0.000471402 0)
(-2.55946 -0.000799188 0)
(-2.56345 -0.00101547 0)
(-2.56728 -0.00115117 0)
(-2.57114 -0.00123469 0)
(-2.57546 -0.00128485 0)
(-2.5796 -0.00131314 0)
(-2.58403 -0.00132756 0)
(-2.58822 -0.00133314 0)
(-2.59261 -0.00133239 0)
(-2.59675 -0.00132797 0)
(-2.60105 -0.00132065 0)
(-2.6051 -0.00131141 0)
(-2.60929 -0.00130093 0)
(-2.61325 -0.00128954 0)
(-2.61732 -0.00127748 0)
(-2.62118 -0.00126485 0)
(-2.62515 -0.00125175 0)
(-2.62891 -0.00123813 0)
(-2.63276 -0.00122342 0)
(-2.63643 -0.00120805 0)
(-2.64018 -0.00119431 -1.40391e-41)
(-2.64376 -0.00118272 0)
(-2.64742 -0.00117215 0)
(-2.65092 -0.00116233 0)
(-2.65449 -0.00115341 0)
(-2.65792 -0.00114544 0)
(-2.66141 -0.00113808 0)
(-2.66477 -0.00113114 0)
(-2.6682 -0.00112462 0)
(-2.67151 -0.00111881 0)
(-2.67488 -0.00111392 0)
(-2.67816 -0.00111022 0)
(-2.68148 -0.00110771 0)
(-2.68474 -0.00110647 0)
(-2.68802 -0.00110644 0)
(-2.69126 -0.00110753 0)
(-2.69452 -0.00110938 0)
(-2.69776 -0.00111258 0)
(-2.70101 -0.00111643 0)
(-2.70426 -0.00112132 0)
(-2.70751 -0.00112684 0)
(-2.71077 -0.00113248 0)
(-2.71405 -0.0011385 0)
(-2.71734 -0.00114455 0)
(-2.72065 -0.00115012 0)
(-2.72398 -0.00115492 0)
(-2.72734 -0.00115861 0)
(-2.73072 -0.00116007 0)
(-2.73414 -0.00115941 0)
(-2.73759 -0.00115622 0)
(-2.74108 -0.00114999 0)
(-2.74461 -0.00113991 0)
(-2.74819 -0.00112527 0)
(-2.75182 -0.00110471 0)
(-2.7555 -0.00107734 0)
(-2.75924 -0.00104198 0)
(-2.76304 -0.000996316 0)
(-2.76691 -0.000941578 0)
(-2.77084 -0.000902343 0)
(-2.77484 -0.000837644 0)
(-2.77891 -0.000752947 0)
(-2.78307 -0.000655889 0)
(-2.78732 -0.000547651 0)
(-2.79166 -0.000427955 0)
(-2.7961 -0.00029686 0)
(-2.80065 -0.00015441 0)
(-2.80531 -8.49737e-07 0)
(-2.81009 0.000163022 0)
(-2.815 0.000335811 0)
(-2.82005 0.000515523 0)
(-2.82524 0.000699417 0)
(-2.83059 0.000883419 0)
(-2.83612 0.00106231 0)
(-2.84182 0.00122941 0)
(-2.84772 0.0013762 0)
(-2.85384 0.00149388 0)
(-2.86018 0.00156712 0)
(-2.86678 0.0015812 0)
(-2.87365 0.00151794 0)
(-2.88082 0.00136306 0)
(-2.88831 0.00109574 0)
(-2.89615 0.000696433 8.18653e-42)
(-2.90436 0.000147869 0)
(-2.91297 -0.000563376 0)
(-2.922 -0.00144164 0)
(-2.93145 -0.00249264 0)
(-2.94113 -0.00375532 -4.41436e-41)
(-2.95107 -0.00505833 0)
(-2.96097 -0.0063673 0)
(-2.97038 -0.00756354 0)
(-2.97858 -0.00853019 0)
(-2.98436 -0.00917411 0)
(-2.9858 -0.00936964 -5.50698e-41)
(-2.97965 -0.00850784 0)
(-2.95992 -0.00561169 0)
(-2.91433 0.000478682 5.62688e-42)
(-2.82426 0.0121635 0)
(-2.65815 0.0320478 0)
(-2.46299 0.0572111 0)
(-2.53515 0.000495012 0)
(-2.53557 0.000598979 0)
(-2.5396 0.000716746 0)
(-2.54345 0.000791997 0)
(-2.54732 0.000832001 0)
(-2.5517 0.000848111 0)
(-2.5559 0.000850212 0)
(-2.5604 0.000844294 0)
(-2.56467 0.000833835 0)
(-2.56916 0.000821443 0)
(-2.57341 0.000807842 0)
(-2.57783 0.0007939 0)
(-2.58202 0.000780256 0)
(-2.58634 0.000766578 0)
(-2.59045 0.000753394 0)
(-2.59467 0.000740537 0)
(-2.59869 0.000728378 0)
(-2.60282 0.000716765 0)
(-2.60675 0.00070611 0)
(-2.61077 0.000696445 0)
(-2.61462 0.000687522 0)
(-2.61854 0.000677912 7.96882e-42)
(-2.6223 0.00066759 0)
(-2.62613 0.00065688 0)
(-2.62982 0.000646345 0)
(-2.63356 0.000635775 0)
(-2.63717 0.000625371 0)
(-2.64083 0.000615336 0)
(-2.64437 0.000606354 0)
(-2.64796 0.000597991 0)
(-2.65144 0.000590528 0)
(-2.65496 0.000582972 0)
(-2.65839 0.000575889 0)
(-2.66186 0.00056867 0)
(-2.66525 0.000561974 0)
(-2.66867 0.00055504 0)
(-2.67203 0.000548827 0)
(-2.67541 0.000542706 0)
(-2.67876 0.000537232 0)
(-2.68211 0.000532331 0)
(-2.68545 0.000528169 0)
(-2.68879 0.000524905 0)
(-2.69212 0.000522716 0)
(-2.69547 0.000521999 0)
(-2.69882 0.000522877 0)
(-2.70218 0.000525841 0)
(-2.70555 0.000531234 0)
(-2.70894 0.000539459 0)
(-2.71234 0.000551456 0)
(-2.71578 0.000567291 0)
(-2.71923 0.000587321 0)
(-2.72272 0.000612159 0)
(-2.72623 0.000642704 0)
(-2.72979 0.000679473 0)
(-2.73338 0.000724032 0)
(-2.73702 0.000777146 0)
(-2.7407 0.000839837 0)
(-2.74443 0.000914355 0)
(-2.74821 0.00100043 0)
(-2.75205 0.00107355 0)
(-2.75596 0.00117398 0)
(-2.75995 0.00129642 0)
(-2.76399 0.00143351 0)
(-2.76812 0.00158435 0)
(-2.77231 0.0017492 0)
(-2.7766 0.00192832 0)
(-2.78097 0.00212189 0)
(-2.78544 0.00233003 0)
(-2.79001 0.00255227 0)
(-2.7947 0.00278742 0)
(-2.7995 0.00303406 0)
(-2.80444 0.00328989 0)
(-2.8095 0.0035514 0)
(-2.81473 0.00381393 0)
(-2.82011 0.00407147 0)
(-2.82567 0.00431642 0)
(-2.83141 0.0045399 0)
(-2.83736 0.0047288 0)
(-2.84354 0.00486918 0)
(-2.84997 0.00494566 0)
(-2.85666 0.00494277 0)
(-2.86365 0.00484139 0)
(-2.87095 0.00462194 5.43306e-41)
(-2.8786 0.00426712 0)
(-2.88659 0.00375936 0)
(-2.89496 0.00307889 0)
(-2.90367 0.00221775 0)
(-2.91257 0.00110846 1.30299e-41)
(-2.92164 -0.000145083 0)
(-2.93052 -0.00158655 0)
(-2.93867 -0.00318448 0)
(-2.94538 -0.00498414 0)
(-2.94963 -0.00719543 0)
(-2.94945 -0.0101109 -5.94268e-41)
(-2.9415 -0.0141399 0)
(-2.91979 -0.0201014 0)
(-2.87336 -0.0298087 -3.50399e-40)
(-2.78285 -0.0462416 0)
(-2.61802 -0.0725142 0)
(-2.42425 -0.103647 0)
(-2.45449 0.00133532 0)
(-2.45412 0.00199211 0)
(-2.45822 0.00246093 0)
(-2.46193 0.00275885 0)
(-2.46577 0.00293479 0)
(-2.47008 0.00303065 0)
(-2.47432 0.00307826 0)
(-2.47886 0.00309611 0)
(-2.48327 0.00309695 0)
(-2.4879 0.00308712 0)
(-2.4924 0.00307166 0)
(-2.49706 0.0030521 0)
(-2.50162 0.00303079 0)
(-2.50629 0.00300792 0)
(-2.51087 0.00298456 0)
(-2.51555 0.00296066 0)
(-2.52014 0.00293692 0)
(-2.52482 0.0029132 0)
(-2.52941 0.00289003 0)
(-2.53407 0.00286721 0)
(-2.53865 0.0028447 0)
(-2.5433 0.00282158 0)
(-2.54786 0.00279807 0)
(-2.55248 0.00277406 0)
(-2.55703 0.00275017 0)
(-2.56161 0.00272618 0)
(-2.56612 0.00270239 0)
(-2.57067 0.00267908 0)
(-2.57514 0.00265721 0)
(-2.57964 0.00263644 0)
(-2.58407 0.00261695 0)
(-2.58852 0.00259779 0)
(-2.5929 0.00257957 0)
(-2.5973 0.00256178 0)
(-2.60163 0.00254517 0)
(-2.60597 0.00252912 0)
(-2.61026 0.00251455 0)
(-2.61455 0.00250072 0)
(-2.61878 0.00248885 0)
(-2.62302 0.00247813 0)
(-2.62722 0.00246957 0)
(-2.63141 0.00246298 0)
(-2.63556 0.00245843 0)
(-2.63971 0.00245681 0)
(-2.64383 0.00245825 0)
(-2.64795 0.00246317 0)
(-2.65204 0.00247212 0)
(-2.65613 0.00248557 0)
(-2.66021 0.00250426 0)
(-2.66429 0.00252853 0)
(-2.66836 0.00255889 0)
(-2.67245 0.00259583 0)
(-2.67654 0.00264018 0)
(-2.68064 0.00269287 0)
(-2.68475 0.0027552 0)
(-2.68889 0.00282813 0)
(-2.69303 0.00291243 0)
(-2.69722 0.00300966 0)
(-2.70142 0.00311656 0)
(-2.70567 0.00322732 0)
(-2.70996 0.00335947 0)
(-2.71429 0.00351288 0)
(-2.71866 0.00368408 0)
(-2.72309 0.00387234 0)
(-2.72756 0.00407777 0)
(-2.7321 0.00430064 0)
(-2.7367 0.00454141 0)
(-2.74138 0.00480052 0)
(-2.74613 0.00507789 0)
(-2.75097 0.00537264 0)
(-2.75591 0.00568393 0)
(-2.76095 0.00600997 0)
(-2.76611 0.00634788 0)
(-2.7714 0.0066936 0)
(-2.77682 0.00704184 0)
(-2.78241 0.00738588 0)
(-2.78817 0.00771716 0)
(-2.79412 0.00802433 0)
(-2.80028 0.00829468 0)
(-2.80668 0.0085141 0)
(-2.81333 0.00866736 0)
(-2.82028 0.00873637 0)
(-2.82754 0.00870013 0)
(-2.83514 0.00854134 0)
(-2.8431 0.00823906 0)
(-2.85144 0.00776247 0)
(-2.86013 0.00707941 0)
(-2.86912 0.00614234 0)
(-2.87826 0.00492497 0)
(-2.8873 0.00333535 0)