/*--------------------------------*- C++ -*----------------------------------*\
| =========                 |                                                 |
| \\      /  F ield         | OpenFOAM: The Open Source CFD Toolbox           |
|  \\    /   O peration     | Version:  2.1.0                                 |
|   \\  /    A nd           | Web:      www.OpenFOAM.org                      |
|    \\/     M anipulation  |                                                 |
\*---------------------------------------------------------------------------*/
FoamFile
{
    version     2.0;
    format      ascii;
    class       volScalarField;
    location    "0.46";
    object      C2;
}
// * * * * * * * * * * * * * * * * * * * * * * * * * * * * * * * * * * * * * //

dimensions      [0 0 0 0 0 0 0];

internalField   nonuniform List<scalar> 
6400
(
0.00243031
0.00242737
0.00242359
0.0024195
0.00241523
0.00241081
0.00240625
0.00240154
0.00239669
0.00239167
0.00238651
0.00238117
0.00237567
0.00237
0.00236415
0.00235811
0.00235188
0.00234546
0.00233884
0.00233201
0.00232497
0.00231771
0.00231021
0.00230249
0.00229451
0.00228629
0.00227781
0.00226907
0.00226004
0.00225074
0.00224114
0.00223123
0.00222101
0.00221047
0.0021996
0.00218837
0.0021768
0.00216485
0.00215252
0.0021398
0.00212668
0.00211313
0.00209915
0.00208472
0.00206982
0.00205445
0.00203858
0.0020222
0.00200529
0.00198783
0.0019698
0.00195119
0.00193197
0.00191212
0.00189163
0.00187046
0.0018486
0.00182603
0.00180271
0.00177862
0.00175374
0.00172804
0.00170149
0.00167407
0.00164574
0.00161647
0.00158624
0.00155501
0.00152276
0.00148943
0.00145502
0.00141947
0.00138276
0.00134485
0.00130572
0.00126531
0.00122361
0.00118059
0.0011362
0.00109044
0.00104328
0.0009947
0.000944698
0.000893276
0.000840449
0.000786249
0.000730726
0.000673953
0.000616034
0.00055711
0.000497362
0.000437031
0.000376461
0.000316211
0.000257148
0.000200383
0.000146827
9.80436e-05
5.65584e-05
2.58155e-05
0.00243305
0.00243012
0.00242639
0.00242237
0.00241818
0.00241384
0.00240936
0.00240473
0.00239996
0.00239503
0.00238995
0.00238471
0.0023793
0.00237372
0.00236796
0.00236203
0.0023559
0.00234959
0.00234307
0.00233635
0.00232942
0.00232227
0.0023149
0.00230729
0.00229944
0.00229135
0.002283
0.00227438
0.00226549
0.00225632
0.00224686
0.0022371
0.00222703
0.00221664
0.00220591
0.00219485
0.00218343
0.00217164
0.00215948
0.00214692
0.00213397
0.00212059
0.00210678
0.00209253
0.00207781
0.00206262
0.00204693
0.00203073
0.00201401
0.00199673
0.00197889
0.00196047
0.00194143
0.00192177
0.00190147
0.00188048
0.00185881
0.00183641
0.00181327
0.00178935
0.00176464
0.00173911
0.00171272
0.00168545
0.00165727
0.00162814
0.00159803
0.00156692
0.00153476
0.00150153
0.00146718
0.00143168
0.001395
0.0013571
0.00131794
0.00127748
0.00123569
0.00119253
0.00114798
0.00110199
0.00105454
0.00100562
0.000955193
0.000903264
0.000849833
0.000794919
0.000738562
0.000680827
0.000621819
0.000561693
0.000500676
0.000439103
0.000377457
0.000316436
0.000256955
0.000200265
0.00014736
0.000100073
6.10108e-05
3.30855e-05
0.0024389
0.00243605
0.00243246
0.0024286
0.00242458
0.00242041
0.0024161
0.00241166
0.00240707
0.00240233
0.00239744
0.0023924
0.0023872
0.00238183
0.00237629
0.00237057
0.00236468
0.0023586
0.00235232
0.00234585
0.00233917
0.00233227
0.00232516
0.00231783
0.00231026
0.00230245
0.00229439
0.00228607
0.00227749
0.00226863
0.00225949
0.00225006
0.00224032
0.00223027
0.0022199
0.00220919
0.00219813
0.00218672
0.00217494
0.00216277
0.00215021
0.00213724
0.00212385
0.00211001
0.00209572
0.00208096
0.00206572
0.00204997
0.00203369
0.00201688
0.00199951
0.00198155
0.001963
0.00194382
0.001924
0.00190351
0.00188233
0.00186043
0.00183779
0.00181438
0.00179017
0.00176514
0.00173925
0.00171248
0.00168479
0.00165615
0.00162652
0.00159588
0.00156418
0.00153139
0.00149747
0.00146238
0.00142608
0.00138853
0.00134969
0.0013095
0.00126795
0.00122496
0.00118052
0.00113457
0.00108707
0.00103798
0.000987282
0.000934932
0.000880916
0.000825228
0.000767884
0.000708928
0.000648453
0.000586624
0.000523706
0.000460121
0.000396498
0.000333741
0.000273092
0.000215814
0.000162978
0.000116442
7.85164e-05
5.16475e-05
0.00244799
0.0024453
0.00244193
0.00243833
0.00243457
0.00243067
0.00242664
0.00242248
0.00241819
0.00241376
0.00240918
0.00240445
0.00239958
0.00239455
0.00238935
0.00238399
0.00237846
0.00237275
0.00236686
0.00236078
0.00235451
0.00234803
0.00234135
0.00233445
0.00232733
0.00231998
0.00231239
0.00230456
0.00229647
0.00228813
0.00227951
0.00227061
0.00226143
0.00225194
0.00224214
0.00223203
0.00222158
0.00221079
0.00219964
0.00218813
0.00217623
0.00216394
0.00215124
0.00213812
0.00212456
0.00211054
0.00209606
0.00208108
0.0020656
0.0020496
0.00203305
0.00201594
0.00199825
0.00197995
0.00196102
0.00194144
0.00192118
0.00190023
0.00187854
0.00185611
0.00183289
0.00180887
0.001784
0.00175826
0.00173162
0.00170404
0.00167549
0.00164593
0.00161532
0.00158363
0.00155082
0.00151683
0.00148164
0.00144519
0.00140744
0.00136834
0.00132784
0.00128588
0.00124243
0.00119741
0.00115078
0.00110248
0.00105244
0.00100062
0.000946964
0.00089142
0.000833963
0.000774595
0.000713363
0.000650398
0.000585947
0.000520438
0.000454543
0.000389268
0.000326007
0.000265944
0.000210269
0.000160919
0.000120308
9.14708e-05
0.00246028
0.00245783
0.00245479
0.00245153
0.00244814
0.00244462
0.00244098
0.00243721
0.00243333
0.00242931
0.00242516
0.00242088
0.00241646
0.0024119
0.00240719
0.00240232
0.0023973
0.00239211
0.00238676
0.00238123
0.00237553
0.00236964
0.00236355
0.00235727
0.00235079
0.00234409
0.00233717
0.00233003
0.00232265
0.00231503
0.00230716
0.00229904
0.00229064
0.00228196
0.002273
0.00226374
0.00225417
0.00224429
0.00223407
0.00222351
0.00221259
0.00220131
0.00218964
0.00217758
0.00216511
0.00215221
0.00213887
0.00212508
0.00211081
0.00209605
0.00208078
0.00206498
0.00204863
0.00203171
0.0020142
0.00199608
0.00197732
0.0019579
0.00193779
0.00191697
0.00189542
0.0018731
0.00184998
0.00182604
0.00180124
0.00177555
0.00174894
0.00172137
0.00169281
0.00166321
0.00163253
0.00160074
0.00156778
0.00153362
0.0014982
0.00146147
0.00142337
0.00138385
0.00134283
0.00130026
0.00125606
0.00121015
0.00116244
0.00111284
0.00106125
0.00100758
0.000951717
0.000893599
0.000833179
0.000770483
0.000705644
0.000638967
0.000570998
0.000502617
0.000435123
0.000369654
0.000307584
0.000251211
0.000203795
0.000170392
0.00247564
0.00247351
0.00247088
0.00246807
0.00246514
0.0024621
0.00245895
0.00245569
0.00245232
0.00244885
0.00244525
0.00244154
0.00243771
0.00243374
0.00242965
0.00242543
0.00242106
0.00241656
0.0024119
0.00240709
0.00240212
0.00239699
0.00239169
0.00238622
0.00238057
0.00237473
0.00236869
0.00236246
0.00235601
0.00234936
0.00234248
0.00233537
0.00232803
0.00232044
0.00231259
0.00230448
0.0022961
0.00228743
0.00227847
0.0022692
0.00225962
0.00224971
0.00223946
0.00222886
0.0022179
0.00220655
0.00219482
0.00218267
0.00217011
0.0021571
0.00214364
0.00212971
0.00211529
0.00210036
0.0020849
0.0020689
0.00205232
0.00203516
0.00201738
0.00199897
0.00197989
0.00196013
0.00193966
0.00191845
0.00189648
0.0018737
0.0018501
0.00182563
0.00180027
0.00177398
0.00174671
0.00171844
0.00168911
0.00165868
0.00162709
0.00159431
0.00156025
0.00152488
0.0014881
0.00144984
0.00141002
0.00136853
0.00132525
0.00128007
0.00123284
0.00118339
0.00113157
0.00107718
0.00102006
0.000960067
0.000897139
0.000831325
0.000762864
0.00069227
0.000620481
0.000548665
0.000478344
0.000412385
0.000355572
0.000316231
0.00249379
0.00249206
0.00248993
0.00248765
0.00248528
0.00248281
0.00248026
0.00247762
0.00247488
0.00247205
0.00246913
0.00246611
0.00246299
0.00245976
0.00245643
0.00245299
0.00244943
0.00244575
0.00244195
0.00243803
0.00243397
0.00242978
0.00242545
0.00242097
0.00241635
0.00241157
0.00240663
0.00240152
0.00239625
0.0023908
0.00238516
0.00237934
0.00237331
0.00236709
0.00236065
0.002354
0.00234711
0.00234
0.00233264
0.00232502
0.00231715
0.00230901
0.00230058
0.00229186
0.00228284
0.00227351
0.00226385
0.00225386
0.00224351
0.0022328
0.00222172
0.00221024
0.00219836
0.00218605
0.00217331
0.00216012
0.00214645
0.0021323
0.00211763
0.00210244
0.0020867
0.0020704
0.0020535
0.00203599
0.00201785
0.00199904
0.00197954
0.00195933
0.00193837
0.00191663
0.00189408
0.00187069
0.00184641
0.0018212
0.00179502
0.00176782
0.00173953
0.0017101
0.00167945
0.0016475
0.00161416
0.00157932
0.00154285
0.0015046
0.0014644
0.00142204
0.0013773
0.00132991
0.00127957
0.00122599
0.00116887
0.00110795
0.00104306
0.000974168
0.00090156
0.000826402
0.000750169
0.000676159
0.000610851
0.000566328
0.00251432
0.00251304
0.00251149
0.00250983
0.0025081
0.0025063
0.00250443
0.0025025
0.0025005
0.00249843
0.00249628
0.00249407
0.00249177
0.0024894
0.00248695
0.00248442
0.0024818
0.00247909
0.00247629
0.0024734
0.00247041
0.00246732
0.00246412
0.00246082
0.00245741
0.00245388
0.00245023
0.00244647
0.00244257
0.00243854
0.00243438
0.00243007
0.00242562
0.00242102
0.00241626
0.00241134
0.00240625
0.00240098
0.00239554
0.00238991
0.00238408
0.00237806
0.00237182
0.00236537
0.0023587
0.00235179
0.00234464
0.00233724
0.00232959
0.00232166
0.00231345
0.00230496
0.00229616
0.00228705
0.00227762
0.00226786
0.00225774
0.00224727
0.00223641
0.00222517
0.00221353
0.00220147
0.00218897
0.00217602
0.0021626
0.0021487
0.00213429
0.00211935
0.00210386
0.00208781
0.00207115
0.00205387
0.00203593
0.00201731
0.00199796
0.00197784
0.00195691
0.0019351
0.00191237
0.00188863
0.00186381
0.0018378
0.00181048
0.00178171
0.00175131
0.0017191
0.00168483
0.0016482
0.00160888
0.00156647
0.00152054
0.00147061
0.00141616
0.0013566
0.00129138
0.00122134
0.00114778
0.00107374
0.00100655
0.000960863
0.00253662
0.00253587
0.00253496
0.00253398
0.00253296
0.00253189
0.00253078
0.00252963
0.00252844
0.0025272
0.00252592
0.0025246
0.00252322
0.0025218
0.00252033
0.00251881
0.00251723
0.0025156
0.00251392
0.00251217
0.00251037
0.00250851
0.00250658
0.00250459
0.00250253
0.0025004
0.00249819
0.00249592
0.00249356
0.00249113
0.00248861
0.00248601
0.00248332
0.00248054
0.00247766
0.00247468
0.00247161
0.00246843
0.00246514
0.00246173
0.00245821
0.00245457
0.0024508
0.0024469
0.00244287
0.0024387
0.00243438
0.00242992
0.00242529
0.00242051
0.00241556
0.00241043
0.00240513
0.00239964
0.00239396
0.00238808
0.00238199
0.00237569
0.00236917
0.00236242
0.00235543
0.00234819
0.00234071
0.00233296
0.00232494
0.00231664
0.00230805
0.00229915
0.00228995
0.00228041
0.00227053
0.0022603
0.00224969
0.00223869
0.00222728
0.00221542
0.0022031
0.00219026
0.00217686
0.00216286
0.00214821
0.00213282
0.00211661
0.00209948
0.0020813
0.00206193
0.00204119
0.00201886
0.00199466
0.00196826
0.00193928
0.00190727
0.00187163
0.00183163
0.00178625
0.00173466
0.00167883
0.0016203
0.00156516
0.00152681
0.00255995
0.00255976
0.00255952
0.00255927
0.00255899
0.0025587
0.0025584
0.00255808
0.00255774
0.00255739
0.00255702
0.00255663
0.00255623
0.00255581
0.00255538
0.00255493
0.00255446
0.00255397
0.00255346
0.00255294
0.00255239
0.00255183
0.00255124
0.00255064
0.00255001
0.00254936
0.00254869
0.002548
0.00254728
0.00254653
0.00254576
0.00254497
0.00254415
0.0025433
0.00254242
0.00254151
0.00254057
0.0025396
0.00253859
0.00253755
0.00253648
0.00253537
0.00253422
0.00253304
0.00253181
0.00253055
0.00252924
0.00252789
0.00252649
0.00252504
0.00252355
0.00252201
0.00252042
0.00251878
0.00251709
0.00251534
0.00251354
0.00251168
0.00250976
0.00250779
0.00250576
0.00250367
0.00250153
0.00249932
0.00249706
0.00249474
0.00249235
0.00248991
0.00248741
0.00248485
0.00248223
0.00247955
0.0024768
0.00247399
0.00247111
0.00246814
0.0024651
0.00246196
0.00245871
0.00245534
0.00245181
0.00244809
0.00244413
0.00243991
0.00243535
0.00243041
0.00242504
0.0024192
0.00241274
0.00240554
0.00239749
0.00238841
0.00237806
0.00236605
0.00235188
0.0023348
0.00231435
0.00229154
0.00226854
0.0022512
0.00258346
0.00258384
0.00258429
0.00258477
0.00258525
0.00258575
0.00258625
0.00258677
0.0025873
0.00258784
0.00258839
0.00258896
0.00258954
0.00259014
0.00259075
0.00259138
0.00259203
0.00259269
0.00259338
0.00259408
0.00259481
0.00259556
0.00259633
0.00259713
0.00259795
0.0025988
0.00259967
0.00260057
0.00260151
0.00260247
0.00260346
0.00260449
0.00260556
0.00260666
0.00260779
0.00260897
0.00261019
0.00261145
0.00261275
0.0026141
0.0026155
0.00261694
0.00261844
0.00261999
0.0026216
0.00262326
0.00262499
0.00262678
0.00262863
0.00263056
0.00263255
0.00263463
0.00263678
0.00263901
0.00264133
0.00264375
0.00264625
0.00264886
0.00265157
0.0026544
0.00265734
0.00266041
0.00266361
0.00266696
0.00267045
0.0026741
0.00267792
0.00268192
0.00268611
0.00269051
0.00269512
0.00269996
0.00270504
0.00271038
0.002716
0.00272191
0.00272813
0.00273468
0.00274158
0.00274883
0.00275647
0.00276451
0.00277296
0.00278184
0.00279119
0.002801
0.00281131
0.0028221
0.00283349
0.00284565
0.00285878
0.00287317
0.00288896
0.00290634
0.00292547
0.00294661
0.00296996
0.00299523
0.00302006
0.003038
0.0026063
0.00260723
0.00260834
0.00260952
0.00261074
0.002612
0.00261329
0.00261461
0.00261598
0.00261739
0.00261883
0.00262032
0.00262185
0.00262343
0.00262505
0.00262673
0.00262845
0.00263023
0.00263207
0.00263396
0.00263592
0.00263793
0.00264001
0.00264216
0.00264438
0.00264667
0.00264904
0.00265148
0.00265401
0.00265661
0.00265931
0.0026621
0.00266498
0.00266795
0.00267103
0.00267422
0.00267751
0.00268091
0.00268444
0.00268808
0.00269185
0.00269575
0.00269979
0.00270397
0.0027083
0.00271277
0.00271741
0.00272221
0.00272719
0.00273234
0.00273768
0.00274321
0.00274894
0.00275488
0.00276104
0.00276743
0.00277405
0.00278092
0.00278806
0.00279546
0.00280314
0.00281113
0.00281943
0.00282805
0.00283702
0.00284635
0.00285607
0.00286618
0.00287672
0.0028877
0.00289915
0.0029111
0.00292358
0.00293661
0.00295024
0.00296449
0.0029794
0.00299503
0.0030114
0.00302858
0.0030466
0.00306553
0.00308543
0.00310636
0.00312842
0.00315169
0.00317628
0.00320232
0.00323001
0.00325955
0.00329121
0.00332537
0.00336285
0.00340403
0.00344914
0.00349841
0.0035515
0.00360643
0.0036575
0.00369238
0.00262775
0.00262917
0.0026309
0.00263273
0.00263464
0.0026366
0.00263862
0.0026407
0.00264284
0.00264505
0.00264732
0.00264966
0.00265208
0.00265456
0.00265713
0.00265977
0.00266249
0.0026653
0.0026682
0.00267119
0.00267428
0.00267747
0.00268076
0.00268415
0.00268766
0.00269128
0.00269502
0.00269888
0.00270287
0.00270699
0.00271125
0.00271566
0.00272021
0.00272491
0.00272977
0.0027348
0.00274
0.00274537
0.00275093
0.00275668
0.00276263
0.00276878
0.00277514
0.00278173
0.00278854
0.0027956
0.00280289
0.00281045
0.00281827
0.00282637
0.00283476
0.00284345
0.00285244
0.00286176
0.00287142
0.00288143
0.0028918
0.00290255
0.0029137
0.00292526
0.00293725
0.00294969
0.00296261
0.00297602
0.00298994
0.00300441
0.00301944
0.00303507
0.00305133
0.00306824
0.00308584
0.00310417
0.00312327
0.00314317
0.00316394
0.00318561
0.00320824
0.00323188
0.0032566
0.00328247
0.00330955
0.00333792
0.00336768
0.00339892
0.00343174
0.00346627
0.00350266
0.00354106
0.00358168
0.00362473
0.00367049
0.00371925
0.00377138
0.00382765
0.00388792
0.00395197
0.00401872
0.00408528
0.00414511
0.00418537
0.0026472
0.00264906
0.00265134
0.00265376
0.00265628
0.00265887
0.00266154
0.0026643
0.00266713
0.00267006
0.00267307
0.00267617
0.00267936
0.00268266
0.00268605
0.00268955
0.00269316
0.00269688
0.00270072
0.00270469
0.00270877
0.00271299
0.00271735
0.00272184
0.00272648
0.00273127
0.00273622
0.00274133
0.00274661
0.00275206
0.00275769
0.00276351
0.00276953
0.00277574
0.00278216
0.0027888
0.00279566
0.00280275
0.00281009
0.00281767
0.00282551
0.00283363
0.00284201
0.00285069
0.00285967
0.00286895
0.00287856
0.00288851
0.0028988
0.00290945
0.00292048
0.0029319
0.00294372
0.00295596
0.00296863
0.00298176
0.00299536
0.00300946
0.00302406
0.0030392
0.00305489
0.00307116
0.00308804
0.00310554
0.00312371
0.00314256
0.00316214
0.00318246
0.00320358
0.00322552
0.00324834
0.00327206
0.00329674
0.00332242
0.00334916
0.00337702
0.00340605
0.00343633
0.00346791
0.00350086
0.00353528
0.00357123
0.00360882
0.00364812
0.00368925
0.00373231
0.00377743
0.00382473
0.00387433
0.00392637
0.00398096
0.00403817
0.00409805
0.00416077
0.00422619
0.00429355
0.00436137
0.00442671
0.00448392
0.00452268
0.00266422
0.00266645
0.0026692
0.00267213
0.00267517
0.00267831
0.00268155
0.00268488
0.00268831
0.00269185
0.00269549
0.00269924
0.0027031
0.00270708
0.00271119
0.00271542
0.00271978
0.00272428
0.00272891
0.0027337
0.00273863
0.00274372
0.00274898
0.0027544
0.00275999
0.00276577
0.00277173
0.00277788
0.00278424
0.0027908
0.00279758
0.00280458
0.00281181
0.00281928
0.00282699
0.00283497
0.00284321
0.00285172
0.00286052
0.00286962
0.00287902
0.00288874
0.00289879
0.00290919
0.00291993
0.00293105
0.00294255
0.00295444
0.00296674
0.00297947
0.00299265
0.00300628
0.00302039
0.00303499
0.00305011
0.00306577
0.00308198
0.00309876
0.00311615
0.00313416
0.00315282
0.00317216
0.0031922
0.00321298
0.00323453
0.00325687
0.00328005
0.0033041
0.00332906
0.00335496
0.00338186
0.0034098
0.00343882
0.00346899
0.00350034
0.00353295
0.00356686
0.00360215
0.00363887
0.0036771
0.0037169
0.00375835
0.00380152
0.00384648
0.00389331
0.00394207
0.00399283
0.00404563
0.0041005
0.00415742
0.00421631
0.004277
0.00433917
0.00440237
0.00446644
0.00453032
0.00459247
0.00465035
0.00469987
0.004734
0.00267851
0.00268104
0.00268418
0.00268753
0.002691
0.00269459
0.00269829
0.0027021
0.00270602
0.00271006
0.00271422
0.0027185
0.00272292
0.00272746
0.00273214
0.00273697
0.00274194
0.00274707
0.00275235
0.0027578
0.00276342
0.00276922
0.0027752
0.00278136
0.00278773
0.00279429
0.00280106
0.00280805
0.00281527
0.00282272
0.0028304
0.00283834
0.00284654
0.002855
0.00286373
0.00287276
0.00288208
0.00289171
0.00290165
0.00291193
0.00292254
0.00293351
0.00294485
0.00295657
0.00296868
0.0029812
0.00299414
0.00300752
0.00302135
0.00303566
0.00305046
0.00306577
0.0030816
0.00309798
0.00311493
0.00313246
0.00315061
0.0031694
0.00318884
0.00320898
0.00322982
0.00325141
0.00327377
0.00329693
0.00332092
0.00334579
0.00337156
0.00339827
0.00342597
0.00345469
0.00348447
0.00351537
0.00354742
0.00358068
0.00361521
0.00365105
0.00368825
0.00372688
0.00376699
0.00380864
0.00385189
0.00389678
0.00394337
0.00399171
0.00404183
0.00409376
0.00414749
0.004203
0.00426021
0.00431899
0.00437909
0.00444014
0.00450157
0.00456263
0.00462283
0.00468116
0.00473617
0.00478582
0.00482729
0.00485637
0.00268987
0.00269262
0.00269606
0.00269974
0.00270357
0.00270751
0.00271157
0.00271576
0.00272006
0.00272449
0.00272905
0.00273375
0.00273859
0.00274357
0.0027487
0.00275399
0.00275944
0.00276505
0.00277083
0.0027768
0.00278294
0.00278928
0.00279581
0.00280255
0.0028095
0.00281666
0.00282406
0.00283168
0.00283955
0.00284766
0.00285604
0.00286468
0.0028736
0.0028828
0.0028923
0.00290211
0.00291223
0.00292268
0.00293347
0.00294462
0.00295612
0.00296801
0.00298028
0.00299296
0.00300605
0.00301958
0.00303356
0.003048
0.00306293
0.00307835
0.00309429
0.00311077
0.0031278
0.00314542
0.00316362
0.00318245
0.00320192
0.00322206
0.00324289
0.00326444
0.00328673
0.0033098
0.00333367
0.00335838
0.00338395
0.00341042
0.00343783
0.00346622
0.00349561
0.00352605
0.00355758
0.00359025
0.0036241
0.00365917
0.00369551
0.00373317
0.0037722
0.00381264
0.00385454
0.00389795
0.0039429
0.00398944
0.00403759
0.00408738
0.00413881
0.00419187
0.00424652
0.00430268
0.00436022
0.00441894
0.00447852
0.00453851
0.00459825
0.00465688
0.00471357
0.0047675
0.0048173
0.00486119
0.00489706
0.00492238
0.00269822
0.00270112
0.00270477
0.00270869
0.00271277
0.00271697
0.0027213
0.00272575
0.00273033
0.00273504
0.0027399
0.00274489
0.00275004
0.00275533
0.00276079
0.00276641
0.00277219
0.00277815
0.0027843
0.00279063
0.00279715
0.00280387
0.0028108
0.00281794
0.0028253
0.00283289
0.00284072
0.00284879
0.00285712
0.0028657
0.00287456
0.00288369
0.00289312
0.00290284
0.00291287
0.00292321
0.00293389
0.00294491
0.00295628
0.00296802
0.00298013
0.00299264
0.00300554
0.00301887
0.00303263
0.00304683
0.0030615
0.00307664
0.00309228
0.00310844
0.00312512
0.00314236
0.00316016
0.00317855
0.00319756
0.00321719
0.00323748
0.00325845
0.00328012
0.00330252
0.00332567
0.00334961
0.00337435
0.00339994
0.0034264
0.00345376
0.00348205
0.00351132
0.00354159
0.0035729
0.00360529
0.0036388
0.00367346
0.00370933
0.00374643
0.00378481
0.00382451
0.00386557
0.00390802
0.0039519
0.00399724
0.00404407
0.00409239
0.0041422
0.00419351
0.00424628
0.00430044
0.00435592
0.00441255
0.00447014
0.00452838
0.00458682
0.00464488
0.00470179
0.00475657
0.00480846
0.00485617
0.00489799
0.00493186
0.00495568
0.00270357
0.00270654
0.00271032
0.0027144
0.00271863
0.00272299
0.00272749
0.00273211
0.00273687
0.00274176
0.0027468
0.00275198
0.00275732
0.00276282
0.00276847
0.0027743
0.0027803
0.00278647
0.00279284
0.0027994
0.00280615
0.00281311
0.00282029
0.00282768
0.0028353
0.00284316
0.00285125
0.0028596
0.00286821
0.00287708
0.00288623
0.00289566
0.0029054
0.00291543
0.00292578
0.00293646
0.00294747
0.00295883
0.00297055
0.00298265
0.00299512
0.003008
0.00302128
0.00303499
0.00304913
0.00306373
0.0030788
0.00309436
0.00311041
0.00312698
0.00314409
0.00316175
0.00317999
0.00319881
0.00321825
0.00323833
0.00325906
0.00328047
0.00330258
0.00332542
0.00334901
0.00337338
0.00339855
0.00342456
0.00345142
0.00347918
0.00350786
0.0035375
0.00356812
0.00359976
0.00363245
0.00366622
0.00370112
0.00373718
0.00377442
0.00381289
0.00385261
0.00389362
0.00393595
0.00397962
0.00402465
0.00407105
0.00411883
0.00416798
0.00421847
0.00427027
0.00432332
0.00437752
0.00443274
0.00448881
0.00454547
0.00460237
0.00465903
0.00471482
0.00476893
0.00482057
0.00486858
0.00491128
0.00494634
0.00497124
0.00270606
0.00270903
0.00271287
0.00271701
0.00272131
0.00272575
0.00273032
0.00273502
0.00273986
0.00274484
0.00274996
0.00275523
0.00276065
0.00276624
0.00277198
0.0027779
0.002784
0.00279027
0.00279674
0.0028034
0.00281026
0.00281733
0.00282461
0.00283212
0.00283985
0.00284782
0.00285604
0.00286451
0.00287324
0.00288224
0.00289152
0.00290109
0.00291095
0.00292113
0.00293162
0.00294244
0.0029536
0.0029651
0.00297698
0.00298922
0.00300185
0.00301488
0.00302833
0.0030422
0.00305651
0.00307127
0.00308651
0.00310223
0.00311845
0.00313519
0.00315247
0.0031703
0.00318871
0.00320771
0.00322732
0.00324756
0.00326846
0.00329003
0.0033123
0.00333529
0.00335903
0.00338354
0.00340885
0.00343499
0.00346198
0.00348984
0.00351862
0.00354834
0.00357902
0.00361071
0.00364343
0.00367721
0.00371208
0.00374808
0.00378524
0.00382358
0.00386314
0.00390394
0.003946
0.00398935
0.00403401
0.00407996
0.00412723
0.00417578
0.0042256
0.00427665
0.00432886
0.00438215
0.00443639
0.00449145
0.00454715
0.0046032
0.00465923
0.00471461
0.00476856
0.00482029
0.00486885
0.00491282
0.00494998
0.00497735
1.01209e-05
1.01223e-05
1.26223e-05
1.61335e-05
2.02806e-05
2.49533e-05
3.01298e-05
3.58346e-05
4.213e-05
4.91174e-05
5.69423e-05
6.57989e-05
7.59307e-05
8.7623e-05
0.000101176
0.00011684
0.000134668
0.000154206
0.000173795
0.000189034
1.97033e-05
2.0543e-05
2.49408e-05
3.09136e-05
3.78213e-05
4.54434e-05
5.3718e-05
6.26662e-05
7.23724e-05
8.29837e-05
9.47138e-05
0.000107847
0.000122734
0.000139777
0.000159382
0.000181849
0.000207159
0.000234487
0.000261241
0.000281158
3.94352e-05
4.24555e-05
4.99381e-05
5.95715e-05
7.04847e-05
8.2318e-05
9.4941e-05
0.000108357
0.00012267
0.000138084
0.000154898
0.000173506
0.000194392
0.000218088
0.000245112
0.000275811
0.000310042
0.000346526
0.000381599
0.000406906
8.0313e-05
8.6792e-05
9.87911e-05
0.00011346
0.000129709
0.000147039
0.00016524
0.000184283
0.000204291
0.000225528
0.000248392
0.000273411
0.000301211
0.000332473
0.00036783
0.000407656
0.000451628
0.000497891
0.000541539
0.000571938
0.000160828
0.000171854
0.000189597
0.00021045
0.000233051
0.000256766
0.000281305
0.00030661
0.000332822
0.000360266
0.000389451
0.000421043
0.000455821
0.000494613
0.000538169
0.000586852
0.000640079
0.000695308
0.000746276
0.000780379
0.000309052
0.000325016
0.000348812
0.000376008
0.000404933
0.000434816
0.000465297
0.000496299
0.000527978
0.000560717
0.000595143
0.000632043
0.00067233
0.000716977
0.000766819
0.000822166
0.00088211
0.000943349
0.000998346
0.00103376
0.000561888
0.000581716
0.000610041
0.000641796
0.000675047
0.000708904
0.000742961
0.000777123
0.000811563
0.000846734
0.000883341
0.000922233
0.000964402
0.00101092
0.00106267
0.00111988
0.00118127
0.00124287
0.00129638
0.00132991
0.000958393
0.000978939
0.0010077
0.00103953
0.00107241
0.00110541
0.00113812
0.00117044
0.0012026
0.00123511
0.00126861
0.00130387
0.00134188
0.0013837
0.00143021
0.00148152
0.00153612
0.00158958
0.00163414
0.00166136
0.00152461
0.00154078
0.00156337
0.00158813
0.00161335
0.00163822
0.00166241
0.00168591
0.00170902
0.00173208
0.00175549
0.0017798
0.0018058
0.00183433
0.0018662
0.00190145
0.00193857
0.00197371
0.00200127
0.00201674
0.00224874
0.00225486
0.00226362
0.0022731
0.00228249
0.00229137
0.00229965
0.00230736
0.00231456
0.00232128
0.00232766
0.00233386
0.00234023
0.00234705
0.00235474
0.00236334
0.00237229
0.00238009
0.00238478
0.00238574
0.00303957
0.00303259
0.00302268
0.00301168
0.00300027
0.00298878
0.00297719
0.00296531
0.00295299
0.00294004
0.00292628
0.00291141
0.00289505
0.00287681
0.00285627
0.0028336
0.00281002
0.00278762
0.00276873
0.00275601
0.00369358
0.00367814
0.00365652
0.00363252
0.0036076
0.00358242
0.00355718
0.00353183
0.00350603
0.00347933
0.00345129
0.0034213
0.00338858
0.00335234
0.00331192
0.00326748
0.00322074
0.0031758
0.00313872
0.00311558
0.0041871
0.0041685
0.00414234
0.00411311
0.00408251
0.00405129
0.00401975
0.00398789
0.00395545
0.00392192
0.00388664
0.00384884
0.00380758
0.0037619
0.00371104
0.00365504
0.00359549
0.00353677
0.00348696
0.00345589
0.00452642
0.00450902
0.00448398
0.00445566
0.00442567
0.00439475
0.00436317
0.00433097
0.00429792
0.00426358
0.00422726
0.00418815
0.00414532
0.0040978
0.00404481
0.00398618
0.0039232
0.00385973
0.003804
0.00376852
0.0047403
0.00472661
0.00470597
0.00468216
0.00465658
0.00462987
0.00460227
0.00457381
0.00454429
0.00451334
0.00448035
0.00444458
0.00440518
0.00436127
0.00431208
0.00425734
0.00419793
0.00413699
0.00408181
0.00404576
0.00486482
0.00485553
0.00484035
0.00482232
0.0048026
0.00478169
0.00475981
0.00473697
0.004713
0.00468758
0.00466023
0.00463032
0.00459713
0.00455988
0.0045179
0.00447085
0.00441926
0.00436554
0.00431564
0.00428177
0.00493224
0.0049269
0.00491672
0.00490415
0.00489009
0.00487495
0.00485889
0.00484189
0.00482382
0.00480442
0.00478331
0.00476
0.0047339
0.00470439
0.00467086
0.00463298
0.00459104
0.00454678
0.00450481
0.00447526
0.00496648
0.00496408
0.00495779
0.00494957
0.00494018
0.0049299
0.00491883
0.00490694
0.00489412
0.00488017
0.00486481
0.00484767
0.00482829
0.00480619
0.00478087
0.00475202
0.00471977
0.0046853
0.00465206
0.00462791
0.00498308
0.00498251
0.00497883
0.00497375
0.00496782
0.00496122
0.00495399
0.00494609
0.00493745
0.00492791
0.00491727
0.00490527
0.00489158
0.00487582
0.00485763
0.00483672
0.0048131
0.00478755
0.00476249
0.00474377
0.00499122
0.00499133
0.00498924
0.00498625
0.00498269
0.00497865
0.00497413
0.00496911
0.00496352
0.00495726
0.00495021
0.00494216
0.00493291
0.00492218
0.00490969
0.00489523
0.00487873
0.00486062
0.00484244
0.0048283
3.37708e-52
3.37094e-52
3.36335e-52
3.35746e-52
3.35584e-52
3.36052e-52
3.37299e-52
3.39417e-52
3.42445e-52
3.46372e-52
3.51138e-52
3.56639e-52
3.62722e-52
3.69192e-52
3.75812e-52
3.82297e-52
3.88319e-52
3.93505e-52
3.97447e-52
3.99692e-52
1.70926e-51
1.70446e-51
1.69935e-51
1.69533e-51
1.69368e-51
1.69543e-51
1.70134e-51
1.71185e-51
1.72715e-51
1.74718e-51
1.77164e-51
1.79998e-51
1.83144e-51
1.86503e-51
1.89956e-51
1.93359e-51
1.96546e-51
1.99328e-51
2.01499e-51
2.02853e-51
5.92502e-51
5.90039e-51
5.87569e-51
5.85618e-51
5.84612e-51
5.84891e-51
5.86711e-51
5.9023e-51
5.95514e-51
6.02543e-51
6.11212e-51
6.2133e-51
6.3263e-51
6.44768e-51
6.57321e-51
6.69789e-51
6.81595e-51
6.92096e-51
7.00595e-51
7.06328e-51
1.89102e-50
1.8802e-50
1.8697e-50
1.86136e-50
1.85647e-50
1.85609e-50
1.86101e-50
1.87175e-50
1.88854e-50
1.91132e-50
1.93976e-50
1.97325e-50
2.01092e-50
2.05165e-50
2.09406e-50
2.13652e-50
2.17718e-50
2.21402e-50
2.24487e-50
2.26705e-50
5.89037e-50
5.84749e-50
5.80576e-50
5.77236e-50
5.75135e-50
5.74582e-50
5.75816e-50
5.78999e-50
5.84208e-50
5.91429e-50
6.0056e-50
6.11409e-50
6.23701e-50
6.37079e-50
6.51101e-50
6.65254e-50
6.78964e-50
6.91615e-50
7.02518e-50
7.10658e-50
1.82e-49
1.80385e-49
1.78809e-49
1.77534e-49
1.76693e-49
1.7638e-49
1.76665e-49
1.77599e-49
1.79205e-49
1.81479e-49
1.8439e-49
1.87878e-49
1.91857e-49
1.96214e-49
2.00813e-49
2.05492e-49
2.10077e-49
2.14375e-49
2.18161e-49
2.21073e-49
5.60549e-49
5.54662e-49
5.48912e-49
5.44216e-49
5.41011e-49
5.39591e-49
5.4017e-49
5.42894e-49
5.47834e-49
5.54979e-49
5.64232e-49
5.75407e-49
5.88236e-49
6.0237e-49
6.17382e-49
6.32783e-49
6.48028e-49
6.62514e-49
6.75509e-49
6.85735e-49
1.72355e-48
1.70263e-48
1.68215e-48
1.66531e-48
1.65353e-48
1.64774e-48
1.64858e-48
1.65649e-48
1.67168e-48
1.69411e-48
1.72347e-48
1.75919e-48
1.80044e-48
1.84615e-48
1.895e-48
1.94549e-48
1.99594e-48
2.04444e-48
2.08861e-48
2.12402e-48
5.2931e-48
5.2201e-48
5.14856e-48
5.0894e-48
5.04725e-48
5.02503e-48
5.02473e-48
5.04763e-48
5.09433e-48
5.16466e-48
5.25769e-48
5.37166e-48
5.50401e-48
5.65143e-48
5.80993e-48
5.97488e-48
6.14107e-48
6.3025e-48
6.45141e-48
6.57265e-48
1.6238e-47
1.59871e-47
1.5741e-47
1.55365e-47
1.53889e-47
1.53071e-47
1.52973e-47
1.53634e-47
1.55069e-47
1.57274e-47
1.60218e-47
1.63848e-47
1.68085e-47
1.72828e-47
1.77956e-47
1.83326e-47
1.88778e-47
1.94122e-47
1.99106e-47
2.03216e-47
4.97631e-47
4.8912e-47
4.80754e-47
4.73786e-47
4.68697e-47
4.65775e-47
4.65208e-47
4.67107e-47
4.7152e-47
4.78426e-47
4.87733e-47
4.99274e-47
5.12811e-47
5.28037e-47
5.44581e-47
5.62009e-47
5.79821e-47
5.97421e-47
6.14001e-47
6.27818e-47
1.5235e-46
1.49492e-46
1.4668e-46
1.44331e-46
1.42602e-46
1.41581e-46
1.41326e-46
1.41871e-46
1.43228e-46
1.4539e-46
1.48328e-46
1.51992e-46
1.56308e-46
1.61185e-46
1.66508e-46