/*--------------------------------*- C++ -*----------------------------------*\
| =========                 |                                                 |
| \\      /  F ield         | OpenFOAM: The Open Source CFD Toolbox           |
|  \\    /   O peration     | Version:  2.1.0                                 |
|   \\  /    A nd           | Web:      www.OpenFOAM.org                      |
|    \\/     M anipulation  |                                                 |
\*---------------------------------------------------------------------------*/
FoamFile
{
    version     2.0;
    format      ascii;
    class       volScalarField;
    location    "0.46";
    object      k;
}
// * * * * * * * * * * * * * * * * * * * * * * * * * * * * * * * * * * * * * //

dimensions      [0 2 -2 0 0 0 0];

internalField   nonuniform List<scalar> 
6400
(
0.0327841
0.0328232
0.0328265
0.0328203
0.0327978
0.0327869
0.0327566
0.032742
0.0327082
0.0326914
0.0326556
0.0326355
0.0325989
0.0325748
0.0325374
0.0325092
0.0324708
0.0324383
0.0323986
0.0323621
0.0323208
0.0322807
0.0322378
0.0321948
0.0321503
0.0321048
0.0320586
0.0320108
0.0319626
0.0319122
0.0318617
0.0318088
0.0317556
0.0316998
0.0316436
0.0315847
0.0315251
0.0314626
0.0313991
0.0313322
0.0312632
0.03119
0.0311138
0.0310324
0.0309467
0.0308548
0.0307571
0.030652
0.0305397
0.0304189
0.0302894
0.0301503
0.0300011
0.0298387
0.0296605
0.0294646
0.0292486
0.0290311
0.0287952
0.0285558
0.0283001
0.0280396
0.0277658
0.0274848
0.0271902
0.026887
0.0265699
0.0262425
0.025898
0.025538
0.0251618
0.0247662
0.0243527
0.0239182
0.023464
0.0229889
0.0224944
0.0219812
0.0214516
0.0209081
0.020353
0.0197879
0.0192085
0.0185969
0.0179226
0.0172266
0.0164759
0.0156515
0.0147191
0.0136267
0.0123019
0.0106341
0.00854111
0.00605868
0.00340091
0.002357
0.00274613
0.00552313
0.00876178
0.00991658
0.0518729
0.0522103
0.0523648
0.0526481
0.0528231
0.0531041
0.0532981
0.0535729
0.0537846
0.054054
0.0542808
0.0545465
0.0547855
0.0550489
0.0552973
0.0555598
0.0558151
0.0560771
0.0563372
0.0565991
0.0568622
0.0571245
0.05739
0.0576537
0.0579225
0.0581903
0.0584643
0.0587378
0.0590182
0.0592982
0.0595852
0.0598722
0.060166
0.0604604
0.0607612
0.0610633
0.0613716
0.0616821
0.0619991
0.0623191
0.0626458
0.0629731
0.0633048
0.0636368
0.0639704
0.0643027
0.0646333
0.0649597
0.0652803
0.0655931
0.0658962
0.0661888
0.0664739
0.0667515
0.0670105
0.0672506
0.0674563
0.0676705
0.0678565
0.0680366
0.0681885
0.0683285
0.0684443
0.0685492
0.0686258
0.0686845
0.0687122
0.0687217
0.0686979
0.0686272
0.0685161
0.0683489
0.0681234
0.0678275
0.0674542
0.0669934
0.0664361
0.0657742
0.0649992
0.0641064
0.06309
0.0619514
0.0606928
0.0593119
0.0577721
0.0559989
0.0539796
0.0516425
0.0489342
0.0457783
0.0421222
0.0379233
0.0332432
0.0283523
0.0233618
0.0186245
0.0149772
0.0123959
0.0107886
0.00922052
0.0576153
0.0581169
0.0583452
0.05876
0.0590419
0.0594415
0.0597566
0.0601462
0.0604848
0.0608693
0.0612255
0.0616084
0.061978
0.0623616
0.0627416
0.0631271
0.0635148
0.0639028
0.0642959
0.0646856
0.0650815
0.0654716
0.0658674
0.0662562
0.0666515
0.0670417
0.0674407
0.067835
0.0682376
0.0686361
0.0690417
0.0694439
0.069852
0.0702572
0.0706669
0.071074
0.0714841
0.0718909
0.0722985
0.072702
0.0731043
0.0735033
0.0738988
0.0742894
0.0746732
0.0750491
0.0754137
0.075765
0.0760977
0.0764079
0.0766889
0.0769312
0.077136
0.0773325
0.077495
0.0776416
0.0777575
0.077855
0.0779206
0.0779601
0.077976
0.0779768
0.0779134
0.0778287
0.0776847
0.0775067
0.0772685
0.076986
0.0766391
0.0762366
0.0757613
0.0752149
0.0745818
0.0738588
0.0730298
0.0720888
0.0710196
0.0698151
0.0684604
0.0669499
0.0652715
0.0634229
0.0613958
0.0591903
0.0568059
0.0542721
0.0515671
0.0487091
0.0456655
0.0424352
0.0389678
0.0352408
0.031224
0.0269222
0.0224472
0.018097
0.0144246
0.0114653
0.00928346
0.00710581
0.0618786
0.0624401
0.0626956
0.0631761
0.0635094
0.0639696
0.0643454
0.064792
0.065194
0.0656333
0.0660524
0.0664888
0.0669196
0.0673556
0.0677945
0.0682314
0.0686757
0.0691137
0.0695608
0.0699993
0.0704466
0.0708836
0.0713278
0.0717587
0.0721895
0.0726011
0.0730226
0.0734316
0.0738456
0.0742483
0.0746524
0.0750453
0.0754364
0.0758158
0.0761904
0.076552
0.0769059
0.077245
0.0775749
0.0778873
0.0781836
0.0784641
0.0787228
0.0789633
0.0791779
0.0793703
0.0795327
0.0796682
0.0797697
0.0798326
0.0798605
0.0798665
0.0798206
0.0797413
0.0796111
0.0794401
0.0792127
0.0789355
0.0785941
0.0781919
0.0777161
0.0771704
0.076544
0.0758413
0.075048
0.0741706
0.073195
0.0721287
0.0709601
0.0696967
0.0683298
0.0668678
0.065305
0.0636507
0.0619009
0.0600661
0.0581432
0.056143
0.0540632
0.0519138
0.0496923
0.0474081
0.0450583
0.0426514
0.0401862
0.0376702
0.0351033
0.032511
0.0298893
0.0272566
0.0246146
0.02198
0.0193583
0.0167713
0.0142509
0.0118774
0.0096989
0.00786178
0.00658642
0.00598988
0.0630725
0.0636086
0.0638477
0.0643125
0.0646223
0.0650649
0.065412
0.0658344
0.0662014
0.0666075
0.0669839
0.0673768
0.0677557
0.0681367
0.0685129
0.0688821
0.0692511
0.0696074
0.0699651
0.0703064
0.0706487
0.0709726
0.0712956
0.0715995
0.0718986
0.072181
0.0724574
0.0727159
0.0729656
0.0731951
0.0734122
0.0736066
0.0737849
0.0739376
0.0740702
0.0741739
0.074253
0.0742923
0.0743078
0.0743025
0.0742382
0.0741527
0.0740119
0.0738386
0.0736099
0.0733402
0.0730133
0.0726386
0.0722044
0.071717
0.071169
0.0705639
0.0698944
0.0691664
0.0683721
0.0675171
0.0665994
0.0656204
0.0645777
0.0634743
0.0623074
0.0610817
0.0597947
0.0584521
0.0570517
0.0556001
0.0540956
0.0525456
0.0509487
0.0493127
0.0476367
0.0459286
0.0441883
0.0424241
0.0406392
0.0388426
0.0370349
0.0352246
0.0334138
0.0316107
0.0298186
0.0280465
0.0262991
0.0245853
0.0229099
0.0212808
0.0197035
0.0181692
0.0166893
0.0152578
0.0138838
0.0125609
0.0112998
0.0100982
0.00897362
0.00794253
0.00703062
0.00639849
0.00612449
0.00612129
0.0596356
0.0599696
0.0601188
0.0604205
0.0606163
0.0608981
0.0611101
0.0613658
0.0615778
0.061806
0.062008
0.0622084
0.0623931
0.0625644
0.0627258
0.062866
0.0629988
0.0631052
0.0632042
0.0632732
0.0633305
0.0633576
0.0633685
0.0633629
0.0633199
0.0632592
0.0631662
0.0630477
0.0629047
0.062732
0.0625324
0.0622995
0.0620369
0.0617378
0.0614064
0.061036
0.0606308
0.0601846
0.0597028
0.059178
0.0586135
0.0580087
0.0573615
0.0566749
0.0559454
0.0551772
0.0543671
0.0535195
0.0526319
0.0517088
0.0507484
0.0497547
0.0487271
0.0476696
0.0465819
0.0454684
0.0443289
0.0431676
0.0419855
0.0407897
0.0395793
0.0383604
0.0371328
0.0359023
0.034669
0.0334386
0.0322117
0.0309933
0.0297845
0.0285901
0.0274112
0.0262526
0.0251151
0.0240028
0.0229142
0.0218518
0.020818
0.0198146
0.0188445
0.0179088
0.0170081
0.0161379
0.0153033
0.014499
0.0137291
0.0129878
0.0122778
0.0115931
0.0109356
0.0102982
0.00968271
0.00908213
0.00849997
0.00793366
0.00739665
0.00689945
0.00653546
0.00637728
0.00635075
0.00656782
0.0505742
0.0505472
0.0505387
0.0505349
0.0505293
0.0505107
0.0504882
0.0504425
0.0503936
0.0503148
0.0502339
0.0501189
0.0500023
0.0498491
0.0496939
0.0495008
0.0493048
0.0490706
0.0488324
0.0485564
0.0482754
0.0479581
0.0476346
0.047275
0.046902
0.0464962
0.0460739
0.0456208
0.0451498
0.0446491
0.0441296
0.0435815
0.0430144
0.0424201
0.0418073
0.041169
0.0405134
0.0398343
0.0391397
0.0384241
0.0376949
0.0369486
0.0361928
0.0354236
0.0346476
0.0338623
0.0330734
0.0322792
0.0314848
0.0306894
0.0298972
0.0291078
0.0283254
0.0275495
0.026784
0.0260284
0.0252827
0.0245504
0.0238316
0.0231259
0.0224351
0.0217595
0.0211003
0.0204576
0.0198319
0.0192229
0.0186329
0.0180585
0.017501
0.0169585
0.0164318
0.015919
0.0154201
0.0149335
0.0144588
0.0139942
0.0135392
0.0130919
0.0126508
0.0122137
0.0117945
0.0113862
0.010994
0.0106111
0.0102422
0.00988114
0.00953233
0.00919044
0.00886051
0.00853883
0.00823207
0.00793921
0.00766979
0.0074269
0.00723028
0.00710001
0.00704657
0.00709053
0.0074311
0.00762326
0.0377183
0.0373704
0.0372236
0.0369481
0.0367734
0.0364919
0.0362834
0.0359849
0.0357413
0.0354205
0.0351416
0.034796
0.034483
0.0341118
0.0337658
0.0333683
0.0329906
0.0325668
0.0321586
0.0317088
0.0312712
0.0307959
0.0303298
0.0298339
0.0293511
0.0288446
0.0283506
0.0278372
0.0273308
0.0268083
0.0262953
0.0257698
0.0252561
0.0247333
0.0242243
0.0237096
0.0232106
0.0227088
0.0222245
0.02174
0.0212745
0.0208108
0.0203657
0.0199244
0.0195024
0.019086
0.0186893
0.0182995
0.0179296
0.0175675
0.0172249
0.0168904
0.016575
0.0162698
0.0159822
0.0157056
0.0154451
0.0151963
0.0149616
0.0147383
0.0145279
0.0143285
0.0141407
0.0139634
0.0137968
0.0136402
0.0134915
0.0133535
0.0132237
0.0131035
0.0129903
0.0128853
0.012786
0.0126934
0.0126052
0.0125222
0.0124419
0.0123653
0.0122896
0.0122155
0.0121407
0.0120626
0.0119802
0.0118907
0.0117929
0.0116837
0.0115619
0.0114246
0.0112716
0.0111025
0.0109199
0.010728
0.0105357
0.0103545
0.0102266
0.0101712
0.0101654
0.0104125
0.010775
0.0109533
0.0248418
0.024315
0.024096
0.0236806
0.0234409
0.023035
0.0227747
0.0223745
0.0220961
0.0217004
0.0214084
0.0210165
0.0207143
0.0203264
0.0200178
0.0196352
0.0193234
0.0189478
0.0186362
0.0182695
0.0179613
0.0176057
0.0173042
0.0169638
0.0166755
0.0163544
0.0160816
0.015781
0.0155255
0.0152471
0.0150109
0.0147559
0.0145404
0.0143099
0.0141159
0.0139107
0.0137386
0.0135591
0.0134091
0.0132553
0.0131277
0.0129989
0.0128938
0.0127896
0.0127069
0.0126268
0.0125666
0.0125101
0.0124724
0.0124406
0.0124254
0.0124191
0.0124187
0.0124382
0.0124612
0.0125015
0.0125469
0.0126082
0.0126765
0.0127599
0.0128511
0.0129568
0.0130712
0.0131995
0.0133373
0.0134887
0.0136502
0.0138251
0.0140102
0.0142088
0.0144183
0.0146414
0.0148762
0.0151248
0.0153857
0.0156607
0.0159481
0.0162497
0.0165638
0.0168915
0.0172313
0.017583
0.0179446
0.0183149
0.0186909
0.0190699
0.0194478
0.0198196
0.0201797
0.0205233
0.0208453
0.0211429
0.0214162
0.0216697
0.0219188
0.0222127
0.0226582
0.0232727
0.0240983
0.0250038
0.0176878
0.0171562
0.0169408
0.0165304
0.0163147
0.0159236
0.0157094
0.0153391
0.015129
0.014781
0.0145775
0.0142526
0.0140581
0.0137571
0.0135739
0.0132972
0.0131271
0.0128751
0.0127197
0.0124926
0.0123531
0.012151
0.0120284
0.0118511
0.0117461
0.0115931
0.0115058
0.0113765
0.0113069
0.011201
0.0111483
0.0110673
0.0110281
0.0109731
0.0109471
0.0109179
0.0109053
0.0108997
0.0108995
0.0109146
0.0109351
0.0109671
0.0110065
0.0110561
0.0111143
0.0111815
0.0112584
0.0113434
0.011439
0.0115423
0.0116568
0.011779
0.0119124
0.0120543
0.0122072
0.0123694
0.0125425
0.0127258
0.0129202
0.0131256
0.0133427
0.0135716
0.0138129
0.0140672
0.0143348
0.0146167
0.014913
0.0152248
0.0155526
0.0158975
0.0162601
0.0166417
0.0170433
0.0174662
0.0179116
0.0183812
0.0188767
0.0193998
0.0199526
0.0205373
0.0211563
0.0218124
0.0225091
0.0232497
0.0240386
0.0248801
0.0257799
0.026744
0.0277807
0.0288982
0.0301076
0.0314206
0.0328525
0.0344197
0.0361411
0.0380273
0.0400839
0.0422717
0.0437991
0.0444218
0.0205177
0.0199611
0.0197327
0.0192968
0.019061
0.0186418
0.0184007
0.0179987
0.0177552
0.0173713
0.0171282
0.0167639
0.0165246
0.0161813
0.015949
0.0156274
0.0154051
0.015106
0.0148961
0.01462
0.0144245
0.0141718
0.0139922
0.013763
0.0136005
0.0133949
0.0132502
0.0130683
0.012942
0.0127835
0.0126759
0.0125406
0.0124517
0.0123395
0.0122692
0.01218
0.0121282
0.0120621
0.012029
0.0119886
0.0119698
0.0119579
0.0119543
0.0119594
0.0119794
0.0120048
0.0120448
0.0120904
0.0121503
0.0122161
0.0122961
0.0123825
0.0124829
0.0125901
0.0127114
0.0128398
0.012982
0.0131321
0.013296
0.0134683
0.0136544
0.0138502
0.0140597
0.0142801
0.0145148
0.0147615
0.015023
0.0152978
0.0155883
0.0158934
0.0162155
0.0165536
0.0169102
0.0172846
0.0176794
0.0180943
0.018532
0.0189925
0.0194787
0.0199911
0.0205328
0.0211048
0.0217107
0.0223521
0.0230331
0.023756
0.0245256
0.0253452
0.0262202
0.0271547
0.0281559
0.029232
0.030401
0.0316739
0.0330778
0.0346368
0.0363906
0.0383101
0.0398596
0.0405406
0.0309439
0.0304054
0.0301784
0.0297464
0.0294912
0.029065
0.0287818
0.0283565
0.0280485
0.027622
0.0272872
0.0268546
0.0264976
0.0260604
0.0256869
0.0252465
0.0248617
0.0244204
0.0240292
0.02359
0.0231966
0.0227625
0.022371
0.0219452
0.0215593
0.0211448
0.020768
0.0203676
0.0200032
0.0196196
0.0192704
0.0189059
0.0185746
0.0182313
0.0179192
0.0175979
0.0173066
0.017009
0.0167401
0.0164671
0.0162215
0.0159748
0.0157538
0.0155344
0.0153389
0.0151468
0.0149771
0.0148119
0.0146679
0.0145293
0.0144107
0.0142982
0.0142048
0.0141184
0.01405
0.0139885
0.013944
0.0139064
0.0138855
0.0138752
0.0138723
0.0138819
0.0139038
0.0139352
0.0139789
0.0140315
0.0140957
0.0141682
0.0142518
0.0143418
0.0144412
0.0145462
0.0146592
0.0147765
0.0149
0.0150261
0.0151565
0.0152876
0.0154207
0.0155522
0.0156832
0.0158101
0.0159337
0.0160507
0.0161618
0.0162638
0.0163578
0.0164413
0.0165167
0.0165821
0.0166421
0.0166945
0.0167412
0.0168045
0.0169014
0.0170783
0.0173908
0.0179169
0.0186459
0.0196902
0.0439271
0.0435965
0.0434571
0.0431915
0.043023
0.0427483
0.0425427
0.0422478
0.042004
0.0416832
0.0414019
0.0410526
0.040734
0.0403547
0.0399994
0.0395897
0.0391985
0.0387586
0.0383328
0.0378634
0.0374048
0.0369072
0.036418
0.0358942
0.035377
0.0348293
0.0342872
0.0337188
0.0331557
0.0325702
0.0319905
0.0313922
0.0308006
0.0301941
0.0295963
0.0289876
0.0283836
0.0277717
0.0271678
0.0265599
0.0259629
0.0253653
0.0247813
0.0241999
0.0236342
0.0230739
0.0225312
0.0219962
0.0214801
0.0209718
0.0204829
0.0200031
0.0195424
0.0190913
0.0186583
0.0182358
0.0178308
0.0174354
0.017059
0.0166929
0.0163442
0.0160058
0.0156836
0.0153697
0.0150699
0.0147774
0.0144968
0.0142206
0.0139535
0.0136942
0.0134433
0.0131981
0.0129603
0.0127262
0.0124982
0.0122721
0.012051
0.0118303
0.0116138
0.0113967
0.011183
0.0109686
0.0107577
0.0105466
0.0103397
0.0101343
0.00993172
0.00973212
0.00953812
0.00935099
0.0091751
0.00901369
0.00887336
0.0087578
0.00870054
0.00868164
0.00879016
0.00904976
0.0094519
0.00963015
0.0555236
0.0555217
0.0555303
0.0555425
0.0555487
0.0555494
0.0555375
0.0555051
0.0554657
0.0553962
0.0553288
0.0552251
0.0551243
0.0549838
0.0548453
0.0546653
0.0544851
0.0542628
0.0540376
0.0537703
0.0534971
0.0531822
0.0528586
0.0524955
0.0521192
0.0517038
0.0512743
0.0508058
0.0503218
0.0497995
0.0492605
0.0486844
0.0480907
0.0474616
0.0468146
0.0461344
0.0454365
0.0447073
0.043961
0.043186
0.042395
0.0415783
0.0407478
0.0398946
0.0390305
0.0381476
0.0372569
0.0363515
0.035442
0.0345241
0.0336064
0.032685
0.0317684
0.0308528
0.0299465
0.0290461
0.0281594
0.0272832
0.0264241
0.0255794
0.0247519
0.0239374
0.0231436
0.0223661
0.0216114
0.020875
0.0201634
0.0194726
0.0188076
0.0181602
0.0175367
0.0169304
0.0163462
0.0157778
0.0152291
0.0146942
0.0141761
0.0136694
0.0131767
0.0126927
0.0122193
0.0117516
0.0112912
0.0108336
0.01038
0.00994813
0.00952868
0.00913195
0.00874828
0.00838807
0.00804341
0.00772557
0.00742731
0.00716722
0.00692851
0.00677067
0.00670099
0.00669991
0.00703172
0.00722
0.0621855
0.0625035
0.0626463
0.0629306
0.0631208
0.0633858
0.063592
0.0638334
0.0640409
0.0642587
0.0644589
0.064653
0.0648389
0.0650083
0.0651743
0.0653173
0.0654583
0.0655723
0.0656836
0.0657653
0.0658423
0.0658879
0.0659169
0.0659268
0.0659244
0.0658812
0.0658288
0.065737
0.0656305
0.065485
0.0653197
0.0651144
0.0648844
0.0646127
0.0643117
0.0639669
0.0635951
0.0631794
0.0627316
0.0622396
0.061711
0.0611348
0.0605217
0.0598589
0.059158
0.0584071
0.0576174
0.0567786
0.0559012
0.0549767
0.0540148
0.0530087
0.0519675
0.050886
0.0497723
0.0486227
0.0474453
0.046237
0.0450058
0.0437495
0.0424804
0.0411936
0.0399005
0.0385968
0.0372933
0.0359863
0.0346859
0.0333888
0.0321045
0.0308299
0.0295741
0.0283342
0.0271184
0.0259241
0.0247586
0.0236189
0.0225076
0.0214201
0.0203628
0.0193321
0.0183328
0.0173627
0.0164249
0.0155181
0.0146442
0.0138007
0.012982
0.012191
0.0114226
0.0106805
0.00996041
0.0092657
0.00859481
0.00795524
0.00736116
0.00681262
0.00640051
0.00621274
0.00617421
0.00636087
0.0637048
0.0641861
0.064402
0.0648189
0.0651017
0.065498
0.0658154
0.0661939
0.0665297
0.0668947
0.0672393
0.0675935
0.0679406
0.0682855
0.0686304
0.0689661
0.0693051
0.0696308
0.0699607
0.0702747
0.0705922
0.0708922
0.0711939
0.0714788
0.0717612
0.0720251
0.0722859
0.0725268
0.0727634
0.0729813
0.073191
0.0733805
0.0735583
0.0737138
0.0738537
0.0739696
0.0740677
0.0741384
0.0741795
0.0741961
0.0741974
0.074146
0.0740757
0.0739561
0.0738076
0.0736084
0.0733723
0.0730827
0.0727489
0.0723578
0.0719165
0.0714142
0.0708565
0.0702365
0.0695566
0.0688095
0.0680039
0.0671275
0.0661919
0.0651846
0.0641186
0.0629856
0.0617958
0.0605406
0.0592319
0.0578617
0.0564418
0.0549661
0.0534455
0.0518759
0.0502672
0.0486168
0.0469335
0.0452159
0.0434711
0.0416993
0.0399103
0.0381075
0.0362934
0.0344719
0.032645
0.0308175
0.0289912
0.0271726
0.0253636
0.0235725
0.021803
0.0200643
0.0183625
0.0166865
0.0150628
0.0134872
0.0119875
0.0105667
0.00927358
0.0080797
0.00708186
0.00635309
0.00603092
0.00600394
0.061294
0.061793
0.062021
0.0624434
0.062741
0.0631443
0.0634791
0.0638703
0.0642277
0.0646126
0.0649846
0.0653671
0.0657488
0.0661313
0.0665195
0.0669031
0.0672956
0.0676806
0.0680756
0.0684617
0.0688573
0.0692435
0.0696378
0.0700218
0.0704111
0.0707889
0.0711676
0.0715309
0.0718878
0.0722434
0.0725971
0.0729467
0.0732955
0.0736398
0.0739843
0.0743213
0.0746541
0.0749778
0.0752956
0.0756043
0.0759041
0.0761899
0.0764672
0.0767267
0.0769751
0.0772023
0.0774148
0.0776031
0.0777722
0.0779142
0.0780317
0.0781179
0.0781646
0.078183
0.0781832
0.0781184
0.078037
0.0778904
0.0777127
0.0774666
0.077176
0.0768108
0.0763867
0.0758779
0.0752977
0.0746305
0.0738786
0.0730339
0.0720934
0.0710537
0.0699107
0.0686654
0.067314
0.0658608
0.0643033
0.0626486
0.0608952
0.05905
0.0571129
0.0550893
0.0529791
0.0507849
0.0485052
0.04614
0.0436857
0.0411407
0.0385033
0.0357709
0.0329499
0.0300622
0.0271083
0.0241083
0.0210879
0.0180923
0.0152282
0.0125114
0.0101212
0.00808787
0.00662572
0.00592612
0.056244
0.0566759
0.0568742
0.0572311
0.0574774
0.0578209
0.0580959
0.0584306
0.0587257
0.059056
0.0593659
0.0596949
0.0600162
0.0603465
0.0606768
0.0610096
0.061347
0.061683
0.0620259
0.0623652
0.062712
0.063054
0.0634033
0.063747
0.0640972
0.0644416
0.0647915
0.0651363
0.0654874
0.0658382
0.0661943
0.0665511
0.0669123
0.0672736
0.0676377
0.0680028
0.0683722
0.0687424
0.0691157
0.0694898
0.0698658
0.0702421
0.0706197
0.0709961
0.071373
0.071747
0.0721211
0.0724916
0.0728594
0.0732192
0.0735715
0.0739096
0.0742314
0.0745302
0.0747961
0.075013
0.0752381
0.0754201
0.0755966
0.0757325
0.075855
0.0759411
0.0760139
0.0760524
0.0760685
0.0760571
0.0759806
0.0758734
0.0757018
0.0754845
0.0751994
0.0748552
0.0744266
0.0739218
0.0733141
0.0726055
0.0717692
0.0708018
0.0696774
0.0683891
0.0669138
0.0652444
0.0633627
0.0612639
0.0589378
0.0563834
0.0535954
0.0505755
0.0473377
0.0438646
0.0401364
0.0361169
0.0318084
0.0272211
0.0225272
0.0182194
0.0144575
0.011624
0.00943579
0.00727259
0.0498903
0.0501774
0.0503093
0.0505479
0.0506968
0.0509335
0.0510983
0.0513297
0.0515097
0.0517366
0.0519298
0.0521539
0.052358
0.052581
0.0527938
0.053017
0.0532365
0.0534605
0.053685
0.0539102
0.0541381
0.0543644
0.0545945
0.0548221
0.055054
0.0552832
0.0555173
0.0557497
0.0559885
0.0562269
0.0564716
0.0567172
0.0569685
0.0572214
0.0574796
0.0577406
0.0580069
0.0582764
0.0585516
0.0588306
0.0591155
0.0594048
0.0597004
0.0600013
0.0603092
0.0606233
0.0609423
0.0612641
0.0615885
0.0619132
0.0622378
0.0625593
0.0628776
0.0631894
0.0634956
0.0637988
0.0641092
0.0644094
0.0647136
0.0649991
0.0652746
0.0655132
0.0657281
0.0659286
0.0661056
0.0662726
0.0664123
0.0665389
0.0666325
0.066696
0.0667231
0.0667272
0.066658
0.0665413
0.0663426
0.0660681
0.0656897
0.0652051
0.0645892
0.0638358
0.0629224
0.0618414
0.0605743
0.0591155
0.0574545
0.0555841
0.0534669
0.0510916
0.0482865
0.0450521
0.0412807
0.0369506
0.0322301
0.0273591
0.0224841
0.0180663
0.0146149
0.0122389
0.0107424
0.00922542
0.0310988
0.0311257
0.0311228
0.031104
0.0310779
0.0310568
0.0310213
0.0309991
0.0309599
0.0309356
0.0308951
0.0308681
0.0308272
0.0307968
0.0307555
0.0307215
0.0306796
0.030642
0.0305989
0.0305579
0.0305132
0.0304689
0.0304224
0.0303751
0.0303268
0.030277
0.030227
0.0301754
0.030124
0.0300708
0.0300177
0.0299628
0.0299079
0.0298511
0.0297943
0.0297358
0.0296769
0.0296165
0.0295557
0.0294932
0.0294302
0.0293655
0.0292999
0.0292325
0.0291635
0.0290918
0.0290173
0.0289391
0.028857
0.0287702
0.0286787
0.0285815
0.028479
0.0283706
0.0282569
0.0281381
0.0280127
0.027877
0.0277317
0.0275694
0.0273912
0.027188
0.0269682
0.0267402
0.0264985
0.0262497
0.025987
0.0257159
0.0254287
0.0251302
0.0248157
0.0244864
0.0241318
0.0237613
0.0233617
0.0229404
0.0224872
0.0220067
0.0214919
0.0209459
0.0203642
0.0197495
0.0190992
0.0184159
0.0176966
0.0169345
0.0161033
0.015147
0.0140501
0.0127732
0.0112154
0.00930237
0.00710436
0.0049806
0.00301686
0.00232229
0.00260803
0.00528022
0.00862439
0.0098482
0.00947215
0.00467549
0.00403045
0.00390139
0.00387306
0.00389708
0.00381777
0.00378069
0.00376599
0.00376304
0.00378543
0.00385675
0.00413383
0.00471686
0.00547388
0.00655171
0.00691997
0.00690156
0.00576404
0.00340294
0.00777605
0.00468056
0.00428948
0.00419012
0.0041662
0.00404597
0.00396685
0.0039322
0.00392036
0.00392279
0.00397616
0.00416379
0.00455792
0.00514195
0.00622019
0.00686856
0.00700444
0.00675932
0.00519321
0.00278281
0.00621347
0.00478476
0.00460505
0.0045412
0.00436896
0.00426777
0.00420002
0.00417291
0.00416488
0.00417783
0.00430541
0.00456697
0.00505153
0.00599224
0.00679662
0.00704963
0.00703853
0.00647818
0.00456261
0.00215063
0.00579521
0.00511611
0.00503434
0.00479458
0.00463721
0.00452195
0.0044646
0.00444046
0.00443825
0.00454012
0.00476581
0.00519797
0.00606632
0.00686957
0.00719485
0.00725477
0.00697761
0.00602599
0.00378283
0.00154463
0.00591785
0.00548169
0.0053436
0.0050544
0.00493986
0.00486751
0.00484964
0.00488373
0.00500288
0.00528674
0.00568705
0.00651179
0.00718459
0.00748892
0.00757524
0.00739529
0.00678062
0.00540316
0.00293255
0.00101535
0.00628478
0.00593532
0.00580185
0.00561774
0.00558582
0.00559515
0.00572216
0.00595471
0.00637551
0.0068996
0.00752033
0.00800155
0.00820672
0.00824987
0.00796265
0.00732508
0.00636973
0.00458385
0.00189246
0.000561822
0.00721734
0.00709168
0.00707627
0.00710584
0.00738126
0.00770519
0.00825425
0.00895574
0.00962989
0.0098303
0.00989501
0.00975163
0.00942402
0.00883821
0.0080169
0.00707576
0.00563797
0.00347065
0.00114861
0.000251826
0.0108606
0.0113007
0.0118058
0.0124654
0.0134246
0.0144106
0.0148907
0.0150409
0.0140092
0.013413
0.0123203
0.0115308
0.0103077
0.00917456
0.0078412
0.00644318
0.00445155
0.00224909
0.000647062
9.16947e-05
0.0252593
0.0257398
0.0259426
0.0259427
0.0252465
0.0238856
0.0222269
0.0199585
0.0182162
0.0162733
0.0144711
0.0126646
0.0107286
0.00894264
0.00708415
0.00504001
0.0029683
0.00131611
0.000390733
3.94943e-05
0.0411657
0.0393843
0.0374126
0.0346188
0.032078
0.0284876
0.0258651
0.0226931
0.0203119
0.0174304
0.0151777
0.0124455
0.010118
0.00732671
0.00513541
0.00310522
0.00185995
0.000864649
0.000338072
6.20594e-05
0.0379904
0.0364545
0.0348548
0.0323774
0.0302092
0.0269038
0.0244881
0.0215821
0.0194208
0.0167641
0.0147751
0.012182
0.0102308
0.00743596
0.00538702
0.00308988
0.00178509
0.000733419
0.000246689
4.91031e-05
0.0200791
0.0210021
0.0215134
0.0217666
0.0218491
0.0211289
0.0199259
0.0180578
0.0167583
0.0149657
0.0137678
0.0119421
0.0106068
0.008789
0.00721086
0.00517243
0.00295892
0.00116344
0.000285857
3.4411e-05
0.0094709
0.00966949
0.0100765
0.0105429
0.0113349
0.01225
0.013038
0.0133485
0.0131652
0.0122422
0.0117939
0.0108633
0.0100318
0.00897681
0.0078184
0.00648734
0.0045558
0.00224129
0.000566786
4.5923e-05
0.00684785
0.0066663
0.00661144
0.00658502
0.00675622
0.00699646
0.00742382
0.00801694
0.00879609
0.00916615
0.00934263
0.00940981
0.00914921
0.00870832
0.00794745
0.00707089
0.00567263
0.00352725
0.00107197
0.000127376
0.0061053
0.00576932
0.00563769
0.0054354
0.00538535
0.00537149
0.00545284
0.0056267
0.00598725
0.00644167
0.00713087
0.00772851
0.00801576
0.00809423
0.00792651
0.00731039
0.00639008
0.00465226
0.00191366
0.000435554
0.00578588
0.0053828
0.00525311
0.00496868
0.00485191
0.00476946
0.00474355
0.00475532
0.00485455
0.00509683
0.00547582
0.00624664
0.0070288
0.00738834
0.00749142
0.00738724
0.00679458
0.00545447
0.0030068
0.000935326
0.00568108
0.0050208
0.00494887
0.00474286
0.00458542
0.00447324
0.00440752
0.00437792
0.00436935
0.00445257
0.00466678
0.00506614
0.00588532
0.00677857
0.00715359
0.00722419
0.0069892
0.00607137
0.00385862
0.00151251
0.00618018
0.00473053
0.0045319
0.00446441
0.00432382
0.00421889
0.00415391
0.00412721
0.0041193
0.0041283
0.00424289
0.00449707
0.00495689
0.005858
0.0067431
0.00703803
0.00704405
0.0065146
0.00463943
0.00215757
0.00780335
0.00465332
0.00425642
0.00414811
0.00411554
0.00402172
0.00393538
0.0038977
0.00388551
0.00388765
0.00393716
0.0041097
0.00449907
0.00507899
0.00613689
0.00684611
0.00700246
0.00678689
0.00525751
0.00281689
0.00947296
0.00465264
0.00399489
0.00386835
0.0038386
0.00385249
0.00379712
0.00375418
0.00373925
0.00373613
0.00375852
0.0038263
0.00407901
0.00464061
0.0054199
0.00652204
0.0069189
0.00692007
0.0058274
0.00344969
0.00397118
0.00375019
0.00374679
0.0037468
0.00374652
0.00374628
0.00374612
0.00374604
0.003746
0.00374598
0.00374598
0.003746
0.00374604
0.00374612
0.00374628
0.00374652
0.0037468
0.00374679
0.00375019
0.00397117
0.00441489
0.00375346
0.00374141
0.00374096
0.00374056
0.00374012
0.00373987
0.00373975
0.00373969
0.00373966
0.00373966
0.00373969
0.00373975
0.00373987
0.00374012
0.00374056
0.00374096
0.00374141
0.00375346
0.00441489
0.0048594
0.00376059
0.00373287
0.00373264
0.00373284
0.00373273
0.00373256
0.00373242
0.00373235
0.00373231
0.00373231
0.00373235
0.00373242
0.00373256
0.00373273
0.00373284
0.00373264
0.00373287
0.00376059
0.0048594
0.00530178
0.00377206
0.0037243
0.00372396
0.00372492
0.00372524
0.00372525
0.00372519
0.00372514
0.00372512
0.00372512
0.00372514
0.00372519
0.00372525
0.00372524
0.00372492
0.00372396
0.0037243
0.00377206
0.00530179
0.00573925
0.00378544
0.0037155
0.00371483
0.00371665
0.00371758
0.00371789
0.00371795
0.00371795
0.00371795
0.00371795
0.00371795
0.00371795
0.00371789
0.00371758
0.00371665
0.00371483
0.00371551
0.00378544
0.00573924
0.00617058
0.00379767
0.00370577
0.0037051
0.003708
0.00370969
0.00371043
0.0037107
0.00371078
0.0037108
0.0037108
0.00371078
0.0037107
0.00371043
0.00370969
0.003708
0.0037051
0.00370577
0.00379767
0.00617059
0.00659185
0.00380847
0.00369498
0.00369474
0.00369894
0.00370155
0.00370284
0.0037034
0.00370361
0.00370368
0.00370368
0.00370361
0.0037034
0.00370284
0.00370155
0.00369894
0.00369474
0.00369498
0.00380847
0.00659185
0.00700084
0.00381671
0.00368272
0.00368362
0.00368941
0.00369311
0.00369508
0.00369602
0.00369642
0.00369656
0.00369656
0.00369642
0.00369602
0.00369508
0.00369311
0.00368941
0.00368362
0.00368272
0.00381671
0.00700084
0.00739336
0.00382333
0.00366915
0.00367174
0.00367942
0.00368437
0.00368714
0.00368854
0.00368919
0.00368943
0.00368943
0.00368919
0.00368854
0.00368714
0.00368437
0.00367942
0.00367174
0.00366915
0.00382334
0.00739336
0.00776768
0.00382735
0.00365405
0.00365903
0.00366893
0.00367532
0.00367898
0.00368095
0.0036819
0.00368228
0.00368228
0.0036819
0.00368095
0.00367898
0.00367532
0.00366893
0.00365903
0.00365405
0.00382735
0.00776768
0.00812024
0.00383021
0.00363764
0.00364552
0.00365794
0.00366592
0.00367061
0.00367321
0.00367453
0.00367507
0.00367507
0.00367453
0.00367321
0.00367061
0.00366592
0.00365794
0.00364552
0.00363765
0.00383021
0.00812023
0.00845034
0.00383068
0.00361989
0.00363122
0.00364645
0.0036562
0.00366201
0.00366531
0.00366705
0.00366779
0.00366779
0.00366705
0.00366531
0.00366201
0.0036562
0.00364645
0.00363121
0.00361989
0.00383069
0.00845034
0.00875525
0.00383018
0.0036009
0.00361613
0.00363446
0.00364613
0.00365316
0.00365725
0.00365946
0.00366041
0.00366041
0.00365946
0.00365725
0.00365316
0.00364613
0.00363446
0.00361613
0.00360091
0.00383019
0.00875524
0.00903545
0.00382886
0.00358085
0.00360032
0.00362199
0.00363573
0.00364408
0.00364901
0.00365173
0.00365292
0.00365292
0.00365173
0.00364901
0.00364408
0.00363573
0.00362199
0.00360032
0.00358084
0.00382886
0.00903544
0.00928895
0.00382647
0.00355981
0.00358379
0.00360904
0.003625
0.00363475
0.00364059
0.00364385
0.00364531
0.00364531
0.00364385
0.00364059
0.00363475
0.003625
0.00360904
0.0035838
0.00355982
0.00382648
0.00928894
0.00951739
0.0038234
0.00353794
0.00356664
0.00359565
0.00361394
0.00362518
0.00363197
0.00363582
0.00363755
0.00363755
0.00363582
0.00363197
0.00362518
0.00361394
0.00359565
0.00356663
0.00353793
0.00382339
0.00951738
0.00971929
0.00382011
0.00351531
0.00354885
0.00358181
0.00360255
0.00361535
0.00362316
0.00362762
0.00362964
0.00362964
0.00362762
0.00362316
0.00361535
0.00360255
0.00358181
0.00354886
0.00351532
0.00382012
0.00971928
0.00989731
0.00381663
0.00349216
0.00353055
0.00356758
0.00359087
0.00360529
0.00361414
0.00361924
0.00362157
0.00362157
0.00361924
0.00361414
0.00360529
0.00359087
0.00356757
0.00353054
0.00349215
0.00381662
0.0098973
0.0100502
0.00381347
0.00346849
0.0035117
0.00355293
0.00357887
0.00359499
0.00360492
0.00361068
0.00361332
0.00361332
0.00361068
0.00360492
0.00359499
0.00357888
0.00355293
0.00351171
0.00346851
0.00381348
0.0100502
0.0101815
0.00381057
0.00344463
0.00349248
0.00353795
0.0035666
0.00358445
0.0035955
0.00360193
0.0036049
0.0036049
0.00360193
0.00359549
0.00358445
0.0035666
0.00353795
0.00349247
0.00344461
0.00381057
0.0101815
0.0102898
0.00380853
0.00342045
0.00347279
0.0035226
0.00355404
0.00357367
0.00358587
0.003593
0.0035963
0.0035963
0.003593
0.00358587
0.00357367
0.00355404
0.00352261
0.0034728
0.00342048
0.00380854
0.0102897
0.0103794
0.00380714
0.00339644
0.00345288
0.00350698
0.00354123
0.00356267
0.00357603
0.00358387
0.00358751
0.00358751
0.00358387
0.00357603
0.00356267
0.00354123
0.00350697
0.00345287
0.00339642
0.00380714
0.0103794
0.0104486
0.00380736
0.00337228
0.00343258
0.00349103
0.00352816
0.00355145
0.003566
0.00357455
0.00357853
0.00357853
0.00357455
0.003566
0.00355145
0.00352816