/*--------------------------------*- C++ -*----------------------------------*\
| =========                 |                                                 |
| \\      /  F ield         | OpenFOAM: The Open Source CFD Toolbox           |
|  \\    /   O peration     | Version:  2.1.0                                 |
|   \\  /    A nd           | Web:      www.OpenFOAM.org                      |
|    \\/     M anipulation  |                                                 |
\*---------------------------------------------------------------------------*/
FoamFile
{
    version     2.0;
    format      ascii;
    class       volScalarField;
    location    "0.46";
    object      nut;
}
// * * * * * * * * * * * * * * * * * * * * * * * * * * * * * * * * * * * * * //

dimensions      [0 2 -1 0 0 0 0];

internalField   nonuniform List<scalar> 
6400
(
7.08396e-06
7.10272e-06
7.11511e-06
7.131e-06
7.1453e-06
7.16359e-06
7.17859e-06
7.19788e-06
7.21359e-06
7.23369e-06
7.25019e-06
7.27075e-06
7.28819e-06
7.30905e-06
7.32751e-06
7.34863e-06
7.36812e-06
7.38957e-06
7.41007e-06
7.43198e-06
7.4535e-06
7.47604e-06
7.49867e-06
7.52204e-06
7.54585e-06
7.57024e-06
7.59529e-06
7.62082e-06
7.64716e-06
7.67394e-06
7.70165e-06
7.72978e-06
7.75891e-06
7.7885e-06
7.81914e-06
7.8503e-06
7.88254e-06
7.91539e-06
7.94932e-06
7.98386e-06
8.01939e-06
8.05539e-06
8.0923e-06
8.12961e-06
8.16764e-06
8.20595e-06
8.24477e-06
8.28374e-06
8.32299e-06
8.36227e-06
8.40163e-06
8.44088e-06
8.47985e-06
8.51778e-06
8.55392e-06
8.58775e-06
8.61838e-06
8.65145e-06
8.68183e-06
8.71403e-06
8.74424e-06
8.77602e-06
8.80679e-06
8.83864e-06
8.86958e-06
8.90135e-06
8.9323e-06
8.96381e-06
8.99372e-06
9.02267e-06
9.0506e-06
9.07652e-06
9.10112e-06
9.12346e-06
9.14433e-06
9.16352e-06
9.18203e-06
9.20072e-06
9.22129e-06
9.24594e-06
9.27723e-06
9.31793e-06
9.36878e-06
9.42407e-06
9.47111e-06
9.53455e-06
9.601e-06
9.66232e-06
9.69607e-06
9.65611e-06
9.45575e-06
8.92492e-06
7.82524e-06
5.9661e-06
3.44974e-06
2.32008e-06
2.40691e-06
3.78165e-06
3.87726e-06
4.18303e-06
7.53871e-05
7.58557e-05
7.59489e-05
7.62547e-05
7.63599e-05
7.66161e-05
7.67417e-05
7.69647e-05
7.71074e-05
7.7307e-05
7.74609e-05
7.76431e-05
7.78023e-05
7.79709e-05
7.81304e-05
7.82874e-05
7.84433e-05
7.85896e-05
7.87385e-05
7.88741e-05
7.90136e-05
7.91383e-05
7.9267e-05
7.93815e-05
7.94998e-05
7.96056e-05
7.97148e-05
7.98117e-05
7.99109e-05
7.99982e-05
8.0086e-05
8.01623e-05
8.0237e-05
8.03004e-05
8.03599e-05
8.04076e-05
8.04491e-05
8.0478e-05
8.05021e-05
8.05149e-05
8.05215e-05
8.05129e-05
8.04934e-05
8.04574e-05
8.04058e-05
8.03345e-05
8.02423e-05
8.01259e-05
7.99829e-05
7.98105e-05
7.9606e-05
7.93681e-05
7.91008e-05
7.88062e-05
7.84699e-05
7.80818e-05
7.73762e-05
7.66495e-05
7.58639e-05
7.50474e-05
7.41768e-05
7.32717e-05
7.2319e-05
7.13345e-05
7.02999e-05
6.92275e-05
6.81043e-05
6.69444e-05
6.57336e-05
6.4461e-05
6.31348e-05
6.17437e-05
6.0289e-05
5.87647e-05
5.71697e-05
5.55018e-05
5.37602e-05
5.19463e-05
5.00614e-05
4.81105e-05
4.6098e-05
4.40335e-05
4.19263e-05
3.97824e-05
3.75851e-05
3.52977e-05
3.29287e-05
3.04548e-05
2.78721e-05
2.51741e-05
2.23801e-05
1.95249e-05
1.66907e-05
1.40205e-05
1.15069e-05
9.23646e-06
7.49635e-06
6.29054e-06
5.68001e-06
6.86408e-06
0.000115455
0.000115731
0.000115841
0.000115963
0.000116059
0.000116141
0.000116227
0.000116278
0.000116352
0.000116379
0.000116437
0.000116441
0.000116477
0.000116458
0.000116469
0.000116424
0.000116405
0.000116333
0.000116282
0.000116181
0.000116094
0.000115959
0.000115831
0.000115658
0.000115488
0.000115281
0.000115078
0.00011484
0.000114603
0.000114334
0.00011406
0.000113757
0.000113446
0.000113106
0.000112755
0.000112377
0.000111985
0.000111566
0.00011112
0.000110643
0.000110143
0.000109614
0.000109054
0.000108463
0.000107837
0.000107174
0.00010647
0.000105723
0.000104926
0.000104075
0.000103163
0.000102048
0.000100536
9.89945e-05
9.73996e-05
9.5779e-05
9.41216e-05
9.24385e-05
9.07169e-05
8.89666e-05
8.71934e-05
8.5409e-05
8.35622e-05
8.17036e-05
7.97965e-05
7.78715e-05
7.5906e-05
7.39204e-05
7.18999e-05
6.98578e-05
6.77831e-05
6.56833e-05
6.35503e-05
6.13881e-05
5.91903e-05
5.69595e-05
5.46911e-05
5.23884e-05
5.00493e-05
4.76792e-05
4.52797e-05
4.28599e-05
4.04251e-05
3.79872e-05
3.5559e-05
3.31705e-05
3.08226e-05
2.85394e-05
2.63181e-05
2.41717e-05
2.20702e-05
2.00356e-05
1.80382e-05
1.59938e-05
1.39474e-05
1.19385e-05
1.01372e-05
8.6258e-06
8.1256e-06
1.13134e-05
0.000137589
0.000137319
0.000137216
0.000136953
0.00013685
0.000136558
0.000136429
0.000136117
0.000135952
0.000135621
0.000135414
0.000135063
0.000134813
0.000134439
0.000134144
0.000133743
0.000133402
0.000132969
0.000132579
0.00013211
0.000131668
0.000131156
0.000130659
0.000130095
0.000129527
0.000128562
0.000127523
0.000126441
0.000125348
0.000124218
0.000123073
0.000121895
0.000120699
0.000119471
0.000118222
0.000116942
0.000115639
0.000114303
0.000112946
0.000111558
0.000110139
0.000108695
0.000107218
0.000105716
0.000104181
0.00010262
0.000101027
9.94085e-05
9.77584e-05
9.60758e-05
9.4368e-05
9.26551e-05
9.09084e-05
8.91475e-05
8.73597e-05
8.55602e-05
8.37378e-05
8.18998e-05
8.00348e-05
7.81495e-05
7.62362e-05
7.4303e-05
7.23456e-05
7.03724e-05
6.83762e-05
6.6368e-05
6.43409e-05
6.23069e-05
6.02614e-05
5.82162e-05
5.61691e-05
5.41316e-05
5.21038e-05
5.00962e-05
4.81099e-05
4.61545e-05
4.42305e-05
4.23459e-05
4.04995e-05
3.86962e-05
3.69323e-05
3.52095e-05
3.35163e-05
3.18534e-05
3.02285e-05
2.86089e-05
2.70013e-05
2.53971e-05
2.37903e-05
2.21731e-05
2.05415e-05
1.88912e-05
1.72123e-05
1.54832e-05
1.37142e-05
1.19863e-05
1.0512e-05
9.77652e-06
1.19118e-05
1.20611e-05
0.000140281
0.000140394
0.000140133
0.000139984
0.00013922
0.000138623
0.000137712
0.000136922
0.000135961
0.000135066
0.000134076
0.00013311
0.000132092
0.000131069
0.000130018
0.000128945
0.000127856
0.000126735
0.000125603
0.000124435
0.000123257
0.000122041
0.000120816
0.000119554
0.000118274
0.000116975
0.000115661
0.000114317
0.000112962
0.00011158
0.000110185
0.000108765
0.000107333
0.000105875
0.000104404
0.00010291
0.000101401
9.98606e-05
9.83134e-05
9.67658e-05
9.51716e-05
9.35831e-05
9.19608e-05
9.03369e-05
8.86873e-05
8.70332e-05
8.53594e-05
8.36809e-05
8.19882e-05
8.02928e-05
7.85897e-05
7.68856e-05
7.51763e-05
7.34661e-05
7.17489e-05
7.00323e-05
6.83172e-05
6.66077e-05
6.49033e-05
6.32082e-05
6.1522e-05
5.985e-05
5.81919e-05
5.65524e-05
5.49307e-05
5.33316e-05
5.17531e-05
5.01996e-05
4.86682e-05
4.71624e-05
4.56739e-05
4.42109e-05
4.27773e-05
4.13507e-05
3.99502e-05
3.85585e-05
3.71834e-05
3.58118e-05
3.44481e-05
3.30806e-05
3.17115e-05
3.03339e-05
2.89488e-05
2.7556e-05
2.6158e-05
2.47538e-05
2.33571e-05
2.19606e-05
2.05837e-05
1.92253e-05
1.79027e-05
1.66158e-05
1.53852e-05
1.41949e-05
1.31032e-05
1.22701e-05
1.20799e-05
1.37497e-05
1.37876e-05
1.41378e-05
0.000127341
0.000126722
0.000126312
0.000125775
0.000124849
0.000123946
0.000122856
0.000121798
0.000120647
0.00011951
0.000118331
0.000117146
0.000115945
0.000114726
0.000113505
0.000112258
0.000111018
0.000109748
0.000108488
0.000107199
0.000105916
0.000104612
0.00010331
0.00010201
0.000100682
9.93597e-05
9.8017e-05
9.66631e-05
9.53036e-05
9.39301e-05
9.25515e-05
9.11586e-05
8.97614e-05
8.83507e-05
8.69368e-05
8.55112e-05
8.40836e-05
8.26471e-05
8.12118e-05
7.97689e-05
7.83273e-05
7.68856e-05
7.54447e-05
7.40084e-05
7.25747e-05
7.11489e-05
6.97284e-05
6.83181e-05
6.69156e-05
6.55252e-05
6.41442e-05
6.27754e-05
6.14167e-05
6.00714e-05
5.87369e-05
5.74155e-05
5.61063e-05
5.48166e-05
5.35423e-05
5.22778e-05
5.10304e-05
4.97924e-05
4.85681e-05
4.73521e-05
4.61468e-05
4.49487e-05
4.37587e-05
4.25747e-05
4.13971e-05
4.02247e-05
3.90579e-05
3.78981e-05
3.67463e-05
3.56014e-05
3.44657e-05
3.33357e-05
3.2218e-05
3.11087e-05
3.00186e-05
2.89405e-05
2.78828e-05
2.68412e-05
2.58232e-05
2.48249e-05
2.38527e-05
2.29032e-05
2.19755e-05
2.10729e-05
2.02071e-05
1.93788e-05
1.86038e-05
1.78899e-05
1.72648e-05
1.67633e-05
1.65169e-05
1.66374e-05
1.60617e-05
1.58179e-05
1.57931e-05
1.32105e-05
0.000111796
0.000110622
0.000110074
0.000109205
0.00010827
0.000107183
0.000106101
0.00010493
0.000103792
0.000102589
0.000101428
0.000100213
9.90412e-05
9.78215e-05
9.66433e-05
9.54228e-05
9.42418e-05
9.30236e-05
9.18431e-05
9.06309e-05
8.94545e-05
8.82543e-05
8.70867e-05
8.58927e-05
8.47273e-05
8.35466e-05
8.23873e-05
8.12186e-05
8.00696e-05
7.89138e-05
7.77751e-05
7.66319e-05
7.55041e-05
7.43734e-05
7.32566e-05
7.21384e-05
7.10327e-05
6.99266e-05
6.88316e-05
6.77328e-05
6.66475e-05
6.55681e-05
6.44926e-05
6.34237e-05
6.236e-05
6.13025e-05
6.02499e-05
5.9203e-05
5.81609e-05
5.7125e-05
5.60935e-05
5.50688e-05
5.4049e-05
5.30379e-05
5.20344e-05
5.10424e-05
5.0051e-05
4.90738e-05
4.81015e-05
4.71406e-05
4.61883e-05
4.52492e-05
4.4323e-05
4.34119e-05
4.25158e-05
4.1635e-05
4.07797e-05
3.99419e-05
3.91302e-05
3.83389e-05
3.75752e-05
3.68329e-05
3.61149e-05
3.54182e-05
3.47449e-05
3.40914e-05
3.34588e-05
3.28408e-05
3.22414e-05
3.12932e-05
3.03382e-05
2.93912e-05
2.84622e-05
2.75421e-05
2.66411e-05
2.57504e-05
2.48807e-05
2.40239e-05
2.3193e-05
2.23822e-05
2.16075e-05
2.08668e-05
2.01757e-05
1.9543e-05
1.90018e-05
1.85976e-05
1.83373e-05
1.82337e-05
1.89296e-05
1.49388e-05
0.0001007
9.89508e-05
9.83878e-05
9.73048e-05
9.64524e-05
9.52822e-05
9.43236e-05
9.31516e-05
9.21618e-05
9.10179e-05
9.00289e-05
8.89212e-05
8.79441e-05
8.68728e-05
8.59108e-05
8.48719e-05
8.39244e-05
8.29127e-05
8.19775e-05
8.09872e-05
8.00606e-05
7.90822e-05
7.80064e-05
7.66961e-05
7.54458e-05
7.41607e-05
7.29522e-05
7.17058e-05
7.05355e-05
6.93354e-05
6.82118e-05
6.70659e-05
6.59961e-05
6.49105e-05
6.39001e-05
6.28775e-05
6.19288e-05
6.09726e-05
6.00882e-05
5.92002e-05
5.83802e-05
5.75589e-05
5.68002e-05
5.60395e-05
5.53383e-05
5.46353e-05
5.39873e-05
5.33372e-05
5.27373e-05
5.21347e-05
5.15761e-05
5.10157e-05
5.049e-05
4.99613e-05
4.94588e-05
4.89566e-05
4.84714e-05
4.79857e-05
4.75074e-05
4.7026e-05
4.65458e-05
4.60601e-05
4.55705e-05
4.50666e-05
4.45588e-05
4.40597e-05
4.35359e-05
4.30197e-05
4.24915e-05
4.19693e-05
4.14358e-05
4.09074e-05
4.03686e-05
3.98339e-05
3.92894e-05
3.87478e-05
3.8197e-05
3.76476e-05
3.70902e-05
3.65299e-05
3.59598e-05
3.53778e-05
3.47816e-05
3.41685e-05
3.35356e-05
3.28799e-05
3.21988e-05
3.14895e-05
3.07521e-05
2.99883e-05
2.92046e-05
2.84121e-05
2.76297e-05
2.68834e-05
2.6266e-05
2.58071e-05
2.54302e-05
2.56014e-05
2.61353e-05
2.05153e-05
8.3874e-05
8.17804e-05
8.093e-05
7.93471e-05
7.84592e-05
7.69847e-05
7.60666e-05
7.46941e-05
7.37583e-05
7.24492e-05
7.15459e-05
7.02965e-05
6.94205e-05
6.82329e-05
6.73883e-05
6.62651e-05
6.54565e-05
6.44e-05
6.36322e-05
6.26444e-05
6.19222e-05
6.10051e-05
6.03322e-05
5.94929e-05
5.88787e-05
5.81224e-05
5.75704e-05
5.68934e-05
5.64041e-05
5.58032e-05
5.53747e-05
5.48459e-05
5.44739e-05
5.40129e-05
5.36917e-05
5.32951e-05
5.30201e-05
5.2682e-05
5.24463e-05
5.21604e-05
5.19578e-05
5.17146e-05
5.15396e-05
5.13308e-05
5.11781e-05
5.09962e-05
5.08607e-05
5.06911e-05
5.05637e-05
5.04384e-05
5.03102e-05
5.01933e-05
5.00449e-05
4.99538e-05
4.98258e-05
4.97416e-05
4.963e-05
4.95533e-05
4.94599e-05
4.9396e-05
4.93211e-05
4.92717e-05
4.92153e-05
4.91808e-05
4.91429e-05
4.91231e-05
4.91047e-05
4.91029e-05
4.91022e-05
4.9117e-05
4.91339e-05
4.91648e-05
4.91982e-05
4.92441e-05
4.92926e-05
4.93516e-05
4.94119e-05
4.94799e-05
4.95473e-05
4.96192e-05
4.96875e-05
4.9754e-05
4.98103e-05
4.98558e-05
4.98817e-05
4.98843e-05
4.98544e-05
4.97849e-05
4.96657e-05
4.94918e-05
4.92561e-05
4.89592e-05
4.86038e-05
4.82029e-05
4.77844e-05
4.74317e-05
4.73001e-05
4.74299e-05
4.79705e-05
3.97721e-05
7.42288e-05
7.23646e-05
7.1618e-05
7.02167e-05
6.95123e-05
6.81923e-05
6.75263e-05
6.62943e-05
6.56656e-05
6.45252e-05
6.39379e-05
6.28869e-05
6.23441e-05
6.13813e-05
6.08848e-05
6.00085e-05
5.95595e-05
5.87671e-05
5.8366e-05
5.76543e-05
5.73006e-05
5.66661e-05
5.63586e-05
5.57971e-05
5.55332e-05
5.50395e-05
5.48156e-05
5.43841e-05
5.41964e-05
5.38235e-05
5.36649e-05
5.33535e-05
5.32023e-05
5.29527e-05
5.28279e-05
5.26342e-05
5.25107e-05
5.23726e-05
5.22457e-05
5.21471e-05
5.20546e-05
5.19781e-05
5.19131e-05
5.18605e-05
5.18225e-05
5.17924e-05
5.17801e-05
5.17728e-05
5.1786e-05
5.18023e-05
5.18381e-05
5.18781e-05
5.19373e-05
5.20055e-05
5.20891e-05
5.21852e-05
5.22946e-05
5.24184e-05
5.25542e-05
5.27054e-05
5.28683e-05
5.30473e-05
5.32384e-05
5.34468e-05
5.36678e-05
5.39063e-05
5.41582e-05
5.44278e-05
5.47117e-05
5.50138e-05
5.53312e-05
5.56672e-05
5.60201e-05
5.63927e-05
5.67837e-05
5.71958e-05
5.76285e-05
5.80841e-05
5.85625e-05
5.90659e-05
5.95943e-05
6.01506e-05
6.0736e-05
6.13532e-05
6.20041e-05
6.2692e-05
6.34197e-05
6.41914e-05
6.50129e-05
6.58887e-05
6.68261e-05
6.78315e-05
6.89133e-05
7.00788e-05
7.13348e-05
7.26746e-05
7.40911e-05
7.55528e-05
7.62777e-05
6.62009e-05
7.89764e-05
7.70012e-05
7.62086e-05
7.47117e-05
7.39464e-05
7.25357e-05
7.17982e-05
7.04784e-05
6.9772e-05
6.85463e-05
6.78736e-05
6.67454e-05
6.61093e-05
6.50791e-05
6.44862e-05
6.35482e-05
6.3004e-05
6.21537e-05
6.1661e-05
6.08944e-05
6.04537e-05
5.97665e-05
5.93768e-05
5.87641e-05
5.84232e-05
5.78798e-05
5.75843e-05
5.71047e-05
5.68505e-05
5.64289e-05
5.62115e-05
5.5842e-05
5.56556e-05
5.53338e-05
5.51727e-05
5.48929e-05
5.47515e-05
5.45011e-05
5.43717e-05
5.41908e-05
5.40406e-05
5.39137e-05
5.37683e-05
5.3647e-05
5.35431e-05
5.34429e-05
5.33623e-05
5.32833e-05
5.32255e-05
5.31682e-05
5.31331e-05
5.30985e-05
5.30866e-05
5.30759e-05
5.3086e-05
5.30999e-05
5.31357e-05
5.31758e-05
5.32376e-05
5.33039e-05
5.33904e-05
5.34844e-05
5.3597e-05
5.37192e-05
5.38596e-05
5.40105e-05
5.41794e-05
5.43595e-05
5.45573e-05
5.47672e-05
5.49949e-05
5.5235e-05
5.54932e-05
5.57645e-05
5.6054e-05
5.63577e-05
5.66808e-05
5.70198e-05
5.73795e-05
5.77572e-05
5.81575e-05
5.85783e-05
5.90243e-05
5.9494e-05
5.99921e-05
6.05182e-05
6.10767e-05
6.16681e-05
6.22965e-05
6.29622e-05
6.36708e-05
6.44274e-05
6.52512e-05
6.61467e-05
6.71392e-05
6.82454e-05
6.95105e-05
7.09061e-05
7.19422e-05
6.30798e-05
9.69229e-05
9.47497e-05
9.38562e-05
9.21791e-05
9.12276e-05
8.96398e-05
8.86384e-05
8.71293e-05
8.60906e-05
8.46612e-05
8.35855e-05
8.22358e-05
8.11409e-05
7.98434e-05
7.87807e-05
7.75265e-05
7.64977e-05
7.5294e-05
7.43033e-05
7.31557e-05
7.22078e-05
7.11204e-05
7.02197e-05
6.91957e-05
6.83458e-05
6.73876e-05
6.65895e-05
6.56999e-05
6.49581e-05
6.41358e-05
6.34516e-05
6.26961e-05
6.20698e-05
6.138e-05
6.08089e-05
6.01805e-05
5.96624e-05
5.90922e-05
5.86237e-05
5.81081e-05
5.76834e-05
5.72168e-05
5.68248e-05
5.64002e-05
5.6038e-05
5.56481e-05
5.53102e-05
5.49476e-05
5.46277e-05
5.42851e-05
5.39779e-05
5.36461e-05
5.33384e-05
5.30277e-05
5.27395e-05
5.24276e-05
5.21488e-05
5.18501e-05
5.15818e-05
5.13099e-05
5.10334e-05
5.07636e-05
5.05077e-05
5.02501e-05
5.00064e-05
4.97605e-05
4.9528e-05
4.92955e-05
4.90759e-05
4.88517e-05
4.86358e-05
4.84144e-05
4.81982e-05
4.7973e-05
4.77483e-05
4.75111e-05
4.72697e-05
4.70117e-05
4.67449e-05
4.64575e-05
4.61592e-05
4.58381e-05
4.55019e-05
4.51405e-05
4.4761e-05
4.43551e-05
4.393e-05
4.34801e-05
4.30146e-05
4.25293e-05
4.20372e-05
4.1533e-05
4.10219e-05
4.05409e-05
4.01168e-05
3.98186e-05
3.97392e-05
4.00027e-05
4.06432e-05
3.43536e-05
0.000104816
0.000103274
0.000102632
0.000101528
0.000100634
9.94325e-05
9.8425e-05
9.72093e-05
9.61612e-05
9.49646e-05
9.39084e-05
9.27412e-05
9.16905e-05
9.0552e-05
8.95135e-05
8.84023e-05
8.73774e-05
8.62923e-05
8.52815e-05
8.42208e-05
8.32247e-05
8.21872e-05
8.12062e-05
8.01898e-05
7.92227e-05
7.82209e-05
7.72721e-05
7.62935e-05
7.53533e-05
7.43929e-05
7.34677e-05
7.25262e-05
7.16163e-05
7.06935e-05
6.98006e-05
6.88988e-05
6.80079e-05
6.71071e-05
6.622e-05
6.53268e-05
6.44481e-05
6.35682e-05
6.27043e-05
6.18428e-05
6.10002e-05
6.01631e-05
5.9349e-05
5.8543e-05
5.77633e-05
5.69917e-05
5.62483e-05
5.55156e-05
5.48112e-05
5.41187e-05
5.34533e-05
5.28053e-05
5.21867e-05
5.14724e-05
5.07407e-05
4.99987e-05
4.92715e-05
4.85334e-05
4.78039e-05
4.70575e-05
4.63142e-05
4.55529e-05
4.47923e-05
4.40072e-05
4.32135e-05
4.24215e-05
4.16311e-05
4.08189e-05
4.00183e-05
3.91994e-05
3.83926e-05
3.75707e-05
3.67612e-05
3.59401e-05
3.51327e-05
3.43176e-05
3.3511e-05
3.26987e-05
3.1898e-05
3.10964e-05
3.03107e-05
2.95297e-05
2.8762e-05
2.80044e-05
2.72673e-05
2.65504e-05
2.58668e-05
2.52202e-05
2.46274e-05
2.40932e-05
2.37104e-05
2.33979e-05
2.33672e-05
2.36419e-05
2.4383e-05
1.8918e-05
0.000118685
0.00011754
0.000117005
0.00011612
0.00011515
0.000114036
0.000112904
0.000111683
0.000110483
0.000109215
0.000107992
0.00010671
0.000105472
0.000104182
0.000102933
0.000101635
0.000100376
9.90721e-05
9.78032e-05
9.64938e-05
9.52162e-05
9.39035e-05
9.26198e-05
9.13077e-05
9.00183e-05
8.87056e-05
8.74152e-05
8.61036e-05
8.48121e-05
8.35037e-05
8.22152e-05
8.09131e-05
7.96295e-05
7.83359e-05
7.70605e-05
7.5779e-05
7.45181e-05
7.3254e-05
7.2009e-05
7.07628e-05
6.95334e-05
6.83039e-05
6.70882e-05
6.58775e-05
6.46829e-05
6.34848e-05
6.23045e-05
6.11224e-05
5.99559e-05
5.87909e-05
5.76405e-05
5.64925e-05
5.53583e-05
5.42279e-05
5.31112e-05
5.19995e-05
5.09028e-05
4.98128e-05
4.87399e-05
4.76788e-05
4.6632e-05
4.55902e-05
4.45644e-05
4.35487e-05
4.2551e-05
4.15662e-05
4.06026e-05
3.96613e-05
3.87452e-05
3.78507e-05
3.69838e-05
3.61412e-05
3.53277e-05
3.45388e-05
3.37743e-05
3.30342e-05
3.23178e-05
3.16249e-05
3.09537e-05
3.0303e-05
2.96666e-05
2.90487e-05
2.8442e-05
2.78505e-05
2.6837e-05
2.58606e-05
2.49062e-05
2.39968e-05
2.31141e-05
2.22813e-05
2.14822e-05
2.07414e-05
2.00417e-05
1.94159e-05
1.88206e-05
1.84106e-05
1.81792e-05
1.79931e-05
1.87267e-05
1.44605e-05
0.00013508
0.000134441
0.000134026
0.000133444
0.000132472
0.000131497
0.000130343
0.000129201
0.00012798
0.000126758
0.000125504
0.000124233
0.000122953
0.000121645
0.000120341
0.000119001
0.000117671
0.000116304
0.000114949
0.000113556
0.000112176
0.000110761
0.000109343
0.000107917
0.000106499
0.000105044
0.000103607
0.00010214
0.00010069
9.92128e-05
9.77409e-05
9.62442e-05
9.47492e-05
9.32327e-05
9.17167e-05
9.01825e-05
8.86573e-05
8.71192e-05
8.55878e-05
8.4048e-05
8.25124e-05
8.09696e-05
7.94343e-05
7.78932e-05
7.63621e-05
7.48279e-05
7.3306e-05
7.17847e-05
7.02777e-05
6.87753e-05
6.7289e-05
6.58107e-05
6.43503e-05
6.29004e-05
6.14682e-05
6.00479e-05
5.8646e-05
5.72534e-05
5.58785e-05
5.45222e-05
5.31801e-05
5.186e-05
5.05562e-05
4.92706e-05
4.79996e-05
4.67426e-05
4.5498e-05
4.42638e-05
4.30396e-05
4.18229e-05
4.06144e-05
3.94115e-05
3.82156e-05
3.7026e-05
3.58481e-05
3.4677e-05
3.35145e-05
3.23596e-05
3.12132e-05
3.00779e-05
2.89538e-05
2.78463e-05
2.67529e-05
2.56811e-05
2.46247e-05
2.35902e-05
2.25731e-05
2.15802e-05
2.06044e-05
1.96552e-05
1.87432e-05
1.78716e-05
1.70528e-05
1.63919e-05
1.59624e-05
1.61323e-05
1.60763e-05
1.58675e-05
1.58837e-05
1.31641e-05
0.000146853
0.000146965
0.00014669
0.000146483
0.000145673
0.000144992
0.000144019
0.000143142
0.000142115
0.000141135
0.000140077
0.00013903
0.000137943
0.000136843
0.000135724
0.000134578
0.000133423
0.000132234
0.000131041
0.00012981
0.000128576
0.000127304
0.000126027
0.000124717
0.000123397
0.000122041
0.00012068
0.000119282
0.000117889
0.000116464
0.000115029
0.000113569
0.000112099
0.000110605
0.0001091
0.000107572
0.000106035
0.000104475
0.000102895
0.000101301
9.97109e-05
9.80759e-05
9.64447e-05
9.47804e-05
9.31134e-05
9.14191e-05
8.97191e-05
8.79963e-05
8.62668e-05
8.45187e-05
8.27649e-05
8.09972e-05
7.92266e-05
7.74494e-05
7.56708e-05
7.38892e-05
7.211e-05
7.03232e-05
6.85422e-05
6.6758e-05
6.49851e-05
6.32187e-05
6.14689e-05
5.97304e-05
5.8014e-05
5.63136e-05
5.46392e-05
5.29855e-05
5.13605e-05
4.97596e-05
4.81884e-05
4.66426e-05
4.51253e-05
4.36262e-05
4.21559e-05
4.07159e-05
3.928e-05
3.7875e-05
3.64709e-05
3.50837e-05
3.36906e-05
3.2301e-05
3.08973e-05
2.94863e-05
2.80534e-05
2.66071e-05
2.51426e-05
2.36621e-05
2.21766e-05
2.06794e-05
1.91904e-05
1.77029e-05
1.62163e-05
1.47919e-05
1.34785e-05
1.24366e-05
1.20866e-05
1.36432e-05
1.38508e-05
1.43364e-05
0.000140955
0.000140631
0.000140503
0.00014018
0.00014004
0.000139693
0.000139524
0.000139162
0.000138956
0.00013858
0.000138333
0.000137942
0.000137653
0.000137242
0.000136911
0.000136476
0.000136101
0.000135638
0.000135218
0.000134723
0.000134256
0.000133724
0.000133208
0.000132634
0.000132063
0.000131437
0.000130803
0.000130113
0.000129026
0.000127882
0.000126716
0.000125526
0.00012432
0.000123091
0.000121849
0.00012058
0.000119292
0.000117975
0.000116636
0.000115272
0.000113883
0.000112463
0.000111022
0.000109547
0.00010805
0.000106519
0.000104964
0.000103374
0.000101761
0.000100114
9.84414e-05
9.67371e-05
9.49954e-05
9.32337e-05
9.14656e-05
8.96472e-05
8.78299e-05
8.59668e-05
8.4101e-05
8.21982e-05
8.02892e-05
7.83479e-05
7.63952e-05
7.4408e-05
7.24038e-05
7.03725e-05
6.83229e-05
6.6253e-05
6.41667e-05
6.2067e-05
5.9957e-05
5.78428e-05
5.5728e-05
5.36211e-05
5.15257e-05
4.94518e-05
4.74025e-05
4.53866e-05
4.34066e-05
4.14686e-05
3.95729e-05
3.77217e-05
3.59119e-05
3.41412e-05
3.23931e-05
3.06703e-05
2.89868e-05
2.72777e-05
2.55836e-05
2.3863e-05
2.21243e-05
2.03302e-05
1.84681e-05
1.65361e-05
1.46153e-05
1.26987e-05
1.10398e-05
1.00808e-05
1.19766e-05
1.21315e-05
0.000116626
0.000116853
0.00011694
0.000117017
0.000117086
0.000117124
0.000117181
0.000117193
0.000117237
0.000117226
0.000117252
0.00011722
0.000117225
0.000117174
0.000117156
0.000117085
0.000117043
0.00011695
0.00011688
0.000116764
0.000116663
0.00011652
0.000116385
0.000116211
0.00011604
0.000115832
0.000115622
0.000115378
0.000115131
0.000114862
0.000114585
0.000114287
0.000113979
0.00011365
0.000113306
0.000112944
0.000112569
0.000112177
0.000111763
0.000111326
0.000110865
0.000110378
0.000109864
0.000109319
0.000108743
0.000108137
0.000107503
0.00010684
0.000106148
0.000105414
0.000104641
0.000103819
0.000102946
0.000102015
0.000101007
9.94497e-05
9.78767e-05
9.62283e-05
9.45603e-05
9.28322e-05
9.10825e-05
8.92867e-05
8.74768e-05
8.56262e-05
8.37525e-05
8.18524e-05
7.98907e-05
7.79089e-05
7.58774e-05
7.38205e-05
7.17219e-05
6.95959e-05
6.74256e-05
6.52252e-05
6.29787e-05
6.06961e-05
5.83638e-05
5.59893e-05
5.35626e-05
5.10904e-05
4.85679e-05
4.60038e-05
4.34e-05
4.07694e-05
3.81226e-05
3.54786e-05
3.28556e-05
3.02771e-05
2.77748e-05
2.5358e-05
2.30136e-05
2.07391e-05
1.85366e-05
1.62984e-05
1.41352e-05
1.21311e-05
1.03198e-05
8.92122e-06
8.37955e-06
1.15377e-05
7.491e-05
7.53478e-05
7.54315e-05
7.5704e-05
7.57953e-05
7.60198e-05
7.61291e-05
7.63223e-05
7.64471e-05
7.6619e-05
7.67542e-05
7.6911e-05
7.70517e-05
7.71975e-05
7.73392e-05
7.74762e-05
7.76155e-05
7.77445e-05
7.78785e-05
7.79993e-05
7.81256e-05
7.82378e-05
7.83545e-05
7.84573e-05
7.85634e-05
7.86564e-05
7.87518e-05
7.88359e-05
7.89224e-05
7.89993e-05
7.90762e-05
7.91447e-05
7.92109e-05
7.92687e-05
7.93225e-05
7.93679e-05
7.94071e-05
7.94363e-05
7.9461e-05
7.94762e-05
7.94849e-05
7.94844e-05
7.94763e-05
7.94589e-05
7.94336e-05
7.93994e-05
7.93535e-05
7.92928e-05
7.92158e-05
7.91186e-05
7.90006e-05
7.88568e-05
7.86867e-05
7.84858e-05
7.8254e-05
7.79936e-05
7.77198e-05
7.74083e-05
7.70772e-05
7.66991e-05
7.62845e-05
7.5728e-05
7.48982e-05
7.40149e-05
7.30735e-05
7.20918e-05
7.10521e-05
6.99718e-05
6.88298e-05
6.76311e-05
6.63703e-05
6.50626e-05
6.3661e-05
6.21943e-05
6.06346e-05
5.8994e-05
5.72542e-05
5.54223e-05
5.34871e-05
5.1455e-05
4.93209e-05
4.70931e-05
4.47725e-05
4.23708e-05
3.98964e-05
3.7361e-05
3.47581e-05
3.21028e-05
2.93184e-05
2.64504e-05
2.34867e-05
2.04629e-05
1.74863e-05
1.46353e-05
1.19466e-05
9.59242e-06
7.77123e-06
6.54263e-06
5.87337e-06
6.7769e-06
6.9773e-06
6.99402e-06
7.00572e-06
7.01937e-06
7.03331e-06
7.04981e-06
7.06396e-06
7.08194e-06
7.09666e-06
7.11542e-06
7.13099e-06
7.15021e-06
7.16678e-06
7.18634e-06
7.20395e-06
7.22383e-06
7.24247e-06
7.26274e-06
7.28236e-06
7.30311e-06
7.3237e-06
7.34506e-06
7.36664e-06
7.38876e-06
7.41141e-06
7.4345e-06
7.45834e-06
7.4826e-06
7.50777e-06
7.53334e-06
7.55991e-06
7.58693e-06
7.61499e-06
7.64361e-06
7.6733e-06
7.70366e-06
7.73515e-06
7.76745e-06
7.80096e-06
7.83541e-06
7.87115e-06
7.90795e-06
7.94611e-06
7.98544e-06
8.02614e-06
8.068e-06
8.11106e-06
8.15522e-06
8.20054e-06
8.24693e-06
8.2945e-06
8.34316e-06
8.39316e-06
8.4445e-06
8.49756e-06
8.55241e-06
8.60893e-06
8.66605e-06
8.72418e-06
8.78124e-06
8.83773e-06
8.89094e-06
8.94362e-06
8.99888e-06
9.05501e-06
9.11466e-06
9.17584e-06
9.24095e-06
9.30779e-06
9.37867e-06
9.45253e-06
9.53057e-06
9.60943e-06
9.69368e-06
9.77896e-06
9.8692e-06
9.96117e-06
1.00579e-05
1.01576e-05
1.02628e-05
1.03729e-05
1.04908e-05
1.06172e-05
1.07555e-05
1.09068e-05
1.10693e-05
1.12267e-05
1.13336e-05
1.13594e-05
1.12327e-05
1.07812e-05
9.77258e-06
8.0613e-06
5.93759e-06
3.61817e-06
2.63581e-06
2.55623e-06
3.91754e-06
4.01831e-06
4.33069e-06
1.09393e-05
2.07738e-06
2.60069e-06
3.51754e-06
4.54845e-06
5.62319e-06
6.48754e-06
7.33714e-06
8.15042e-06
8.90651e-06
9.62001e-06
1.03381e-05
1.14567e-05
1.33356e-05
1.54701e-05
1.78508e-05
1.75966e-05
1.55414e-05
1.0287e-05
3.9956e-06
5.87985e-06
2.1862e-06
2.4752e-06
3.18438e-06
4.05644e-06
4.86413e-06
5.6934e-06
6.55248e-06
7.41587e-06
8.29957e-06
9.27518e-06
1.03727e-05
1.2026e-05
1.40998e-05
1.70541e-05
1.83242e-05
1.74933e-05
1.47069e-05
9.53294e-06
3.96684e-06
4.94618e-06
2.69543e-06
2.90125e-06
3.41686e-06
4.01116e-06
4.71751e-06
5.4818e-06
6.31645e-06
7.22232e-06
8.38998e-06
9.51034e-06
1.10218e-05
1.29401e-05
1.58375e-05
1.80271e-05
1.83052e-05
1.71508e-05
1.40009e-05
8.86984e-06
3.8391e-06
5.05653e-06
3.43953e-06
3.63822e-06
3.876e-06
4.36893e-06
4.92967e-06
5.6745e-06
6.58292e-06
7.71577e-06
9.48943e-06
1.12199e-05
1.29547e-05
1.57422e-05
1.82217e-05
1.91989e-05
1.88223e-05
1.70302e-05
1.32332e-05
7.97789e-06
3.25696e-06
5.6887e-06
4.47718e-06
4.61696e-06
4.63445e-06
5.19477e-06
5.69388e-06
6.58673e-06
7.84451e-06
9.60104e-06
1.31107e-05
1.47782e-05
1.70916e-05
1.93534e-05
2.04391e-05
2.04411e-05
1.92216e-05
1.65352e-05
1.24885e-05
6.87791e-06
2.37393e-06
6.89547e-06
5.97709e-06
6.0485e-06
6.02766e-06
6.77342e-06
7.76999e-06
9.3533e-06
1.16084e-05
1.61272e-05
1.9523e-05
2.0998e-05
2.23905e-05
2.3081e-05
2.28802e-05
2.16797e-05
1.90992e-05
1.59601e-05
1.15529e-05
5.14432e-06
1.46553e-06
9.04369e-06
8.62758e-06
8.85917e-06
9.46572e-06
1.11854e-05
1.36766e-05
1.70888e-05
2.20434e-05
2.87894e-05
2.94404e-05
2.91213e-05
2.83293e-05
2.69245e-05
2.47854e-05
2.16776e-05
1.8529e-05
1.48178e-05
1.00998e-05
3.82071e-06
7.19871e-07
1.46597e-05
1.61393e-05
1.73679e-05
1.96663e-05
2.31977e-05
2.75244e-05
3.30989e-05
4.00652e-05
3.99372e-05
3.77737e-05
3.42812e-05
3.16639e-05
2.81029e-05
2.49266e-05
2.08582e-05
1.70831e-05
1.29151e-05
8.10321e-06
2.7812e-06
2.76882e-07
3.25316e-05
3.5488e-05
3.67145e-05
3.91762e-05
4.36299e-05
4.79738e-05
5.2025e-05
4.77981e-05
4.41744e-05
4.02491e-05
3.63733e-05
3.25833e-05
2.83701e-05
2.33261e-05
1.85617e-05
1.40696e-05
1.01867e-05
6.4454e-06
2.41446e-06
1.21574e-07
5.28241e-05
5.57082e-05
5.59619e-05
5.7466e-05
6.23171e-05
5.94097e-05
5.51224e-05
5.01621e-05
4.60762e-05
4.11172e-05
3.70404e-05
3.18677e-05
2.70264e-05
1.9757e-05
1.40334e-05
9.62227e-06
7.54912e-06
6.03207e-06
2.90501e-06
1.89436e-07
5.03417e-05
5.30743e-05
5.34402e-05
5.50232e-05
5.98185e-05
5.77699e-05
5.36575e-05
4.88946e-05
4.50389e-05
4.02469e-05
3.65705e-05
3.14413e-05
2.76189e-05
2.04764e-05
1.48139e-05
9.76768e-06
7.18022e-06
5.0965e-06
2.17872e-06
1.50609e-07
2.80238e-05
3.092e-05
3.22767e-05
3.47504e-05
3.9149e-05
4.36885e-05
4.96428e-05
4.56344e-05
4.26527e-05
3.84272e-05
3.56702e-05
3.13201e-05
2.83407e-05
2.39317e-05
1.93666e-05
1.46125e-05
1.00116e-05
5.48287e-06
1.67387e-06
1.06129e-07
1.31029e-05
1.40463e-05
1.50236e-05
1.70694e-05
2.02329e-05
2.42815e-05
2.95438e-05
3.64312e-05
3.9767e-05
3.61571e-05
3.4028e-05
3.06156e-05
2.76747e-05
2.45066e-05
2.1266e-05
1.73739e-05
1.2974e-05
7.81127e-06
2.36812e-06
1.41023e-07
8.63827e-06
8.11675e-06
8.26413e-06
8.65952e-06
1.00784e-05
1.22219e-05
1.52236e-05
1.98446e-05
2.63252e-05
2.74901e-05
2.77844e-05
2.7595e-05
2.66712e-05
2.47314e-05
2.14459e-05
1.8619e-05
1.48276e-05
1.00117e-05
3.4843e-06
3.79756e-07
6.73714e-06
5.80501e-06
5.86942e-06
5.8321e-06
6.5134e-06
7.37369e-06
8.75992e-06
1.075e-05
1.48398e-05
1.81974e-05
1.99871e-05
2.17357e-05
2.27543e-05
2.2787e-05
2.18413e-05
1.89562e-05
1.58297e-05
1.14929e-05
5.11198e-06
1.17697e-06
5.62045e-06
4.42678e-06
4.56443e-06
4.6069e-06
5.15439e-06
5.64453e-06
6.48884e-06
7.64135e-06
9.24758e-06
1.23734e-05
1.41525e-05
1.65285e-05
1.90605e-05
2.03553e-05
2.04621e-05
1.93544e-05
1.64121e-05
1.24336e-05
6.93258e-06
2.22578e-06
5.04235e-06
3.43519e-06
3.6373e-06
3.91543e-06
4.41439e-06
4.99447e-06
5.72906e-06
6.61093e-06
7.68812e-06
9.34014e-06
1.09292e-05
1.26845e-05
1.54322e-05
1.813e-05
1.92561e-05
1.88992e-05
1.70966e-05
1.31891e-05
8.03038e-06
3.20746e-06
5.04752e-06
2.73341e-06
2.93265e-06
3.46327e-06
4.09237e-06
4.80654e-06
5.58381e-06
6.42154e-06
7.31354e-06
8.42233e-06
9.50554e-06
1.09537e-05
1.28393e-05
1.56653e-05
1.80428e-05
1.83942e-05
1.72083e-05
1.39476e-05
8.94552e-06
3.79898e-06
6.11996e-06
2.24186e-06
2.53618e-06
3.25413e-06
4.13372e-06
4.98469e-06
5.8195e-06
6.68655e-06
7.55669e-06
8.43095e-06
9.36964e-06
1.04312e-05
1.20463e-05
1.40906e-05
1.69981e-05
1.83781e-05
1.75188e-05
1.47189e-05
9.58503e-06
3.95294e-06
1.0972e-05
2.13805e-06
2.66031e-06
3.5958e-06
4.64391e-06
5.72244e-06
6.63772e-06
7.48921e-06
8.31086e-06
9.06852e-06
9.77594e-06
1.04654e-05
1.1508e-05
1.3303e-05
1.54676e-05
1.78816e-05
1.76244e-05
1.55203e-05
1.03482e-05
3.9902e-06
1.23421e-06
0.000116558
0.000294184
0.000330906
0.00033481
0.000335356
0.000335357
0.000335342
0.000335343
0.000335345
0.000335345
0.000335343
0.000335342
0.000335357
0.000335356
0.00033481
0.000330906
0.000294184
0.000116558
1.23421e-06
1.36973e-06
6.81669e-05
0.000219584
0.000309504
0.000330909
0.000334527
0.000335273
0.000335315
0.000335296
0.000335287
0.000335287
0.000335296
0.000335315
0.000335273
0.000334527
0.000330909
0.000309504
0.000219584
6.8167e-05
1.36973e-06
1.51338e-06
5.28962e-05
0.00017646
0.00028058
0.000322148
0.000332504
0.000334604
0.0003351
0.000335168
0.000335172