/*--------------------------------*- C++ -*----------------------------------*\
| =========                 |                                                 |
| \\      /  F ield         | OpenFOAM: The Open Source CFD Toolbox           |
|  \\    /   O peration     | Version:  2.1.0                                 |
|   \\  /    A nd           | Web:      www.OpenFOAM.org                      |
|    \\/     M anipulation  |                                                 |
\*---------------------------------------------------------------------------*/
FoamFile
{
    version     2.0;
    format      ascii;
    class       volScalarField;
    location    "0.46";
    object      omega;
}
// * * * * * * * * * * * * * * * * * * * * * * * * * * * * * * * * * * * * * //

dimensions      [0 0 -1 0 0 0 0];

internalField   nonuniform List<scalar> 
6400
(
1644.01
1644.95
1645.03
1644.88
1644.34
1644.08
1643.35
1642.99
1642.18
1641.77
1640.91
1640.42
1639.54
1638.95
1638.05
1637.36
1636.43
1635.65
1634.68
1633.8
1632.79
1631.82
1630.78
1629.73
1628.65
1627.54
1626.41
1625.25
1624.07
1622.84
1621.61
1620.31
1619.01
1617.64
1616.26
1614.82
1613.35
1611.82
1610.25
1608.6
1606.9
1605.09
1603.21
1601.19
1599.07
1596.79
1594.36
1591.75
1588.94
1585.93
1582.68
1579.2
1575.44
1571.35
1566.85
1561.88
1556.39
1550.83
1544.79
1538.63
1532.03
1525.27
1518.13
1510.77
1503.02
1495
1486.56
1477.8
1468.53
1458.77
1448.51
1437.64
1426.18
1414.05
1401.26
1387.74
1373.54
1358.64
1343.09
1326.94
1310.25
1293.03
1275.14
1255.97
1234.5
1211.93
1187.11
1159.24
1126.89
1087.77
1038.35
972.563
883.099
763.52
610.045
537.915
565.878
735.175
892.953
942.848
688.086
688.284
689.474
690.424
691.765
693.12
694.512
696.072
697.528
699.213
700.751
702.528
704.163
706.019
707.757
709.689
711.535
713.544
715.497
717.588
719.651
721.831
724.008
726.287
728.587
730.983
733.419
735.954
738.55
741.244
744.015
746.888
749.853
752.928
756.114
759.421
762.862
766.446
770.155
774.007
778.001
782.149
786.459
790.937
795.595
800.437
805.477
810.72
816.179
821.861
827.78
833.948
840.37
847.034
853.965
861.155
868.618
876.478
884.648
893.237
902.196
911.614
921.473
931.846
942.738
954.225
966.265
978.764
991.811
1005.6
1020.08
1035.37
1051.49
1068.53
1086.54
1105.62
1125.85
1147.34
1170.22
1194.62
1220.74
1248.83
1278.59
1309.05
1341.26
1374.11
1407.18
1439.21
1468.95
1494.75
1513.44
1522.01
1523.72
1509.4
1474.02
1394.75
1285
1150.75
1005.89
848.268
499.028
502.172
503.667
506.713
508.724
511.807
514.139
517.26
519.841
523.025
525.825
529.096
532.104
535.487
538.699
542.216
545.636
549.308
552.929
556.765
560.594
564.61
568.652
572.863
577.128
581.551
586.045
590.689
595.427
600.313
605.31
610.457
615.732
621.16
626.73
632.458
638.337
644.379
650.632
657.085
663.725
670.566
677.633
684.927
692.464
700.253
708.308
716.637
725.253
734.164
743.379
752.899
762.736
772.906
783.413
794.277
805.512
817.159
829.21
841.705
854.639
868.045
881.92
896.29
911.148
926.509
942.386
958.841
975.793
993.088
1010.76
1028.7
1046.89
1065.26
1083.77
1102.38
1121.05
1139.77
1158.53
1177.35
1196.26
1215.28
1234.41
1253.71
1273.14
1292.5
1311.63
1330
1346.94
1361.28
1369.12
1371.93
1365.35
1339.09
1290.38
1210.65
1102.15
960.962
797.346
628.086
449.735
454.709
456.91
461.298
464.081
468.441
471.639
476.001
479.537
483.946
487.78
492.278
496.388
501.012
505.386
510.169
514.803
519.772
524.673
529.857
535.031
540.453
545.91
551.588
557.332
563.277
569.313
575.536
581.869
588.384
595.027
601.849
608.816
615.963
623.268
630.757
638.416
646.266
654.278
662.473
670.872
679.472
688.247
697.212
706.353
715.672
725.158
734.808
744.611
754.559
764.642
774.85
785.17
795.597
806.111
816.713
827.388
838.134
848.934
859.784
870.666
881.57
892.479
903.379
914.244
925.055
935.799
946.505
957.112
967.623
977.996
988.224
998.246
1008.01
1017.49
1026.59
1035.26
1043.37
1050.85
1057.54
1063.29
1067.92
1070.94
1072.31
1072.61
1070.05
1065.16
1057.05
1045.54
1029.78
1009.24
982.907
949.548
907.384
854.412
788.928
712.222
629.216
552.934
496.63
438.555
444.632
447.27
452.538
455.843
461.06
464.838
470.032
474.186
479.4
483.873
489.148
493.903
499.272
504.286
509.774
515.027
520.655
526.139
531.924
537.63
543.58
549.498
555.618
561.738
568.026
574.342
580.801
587.301
593.921
600.587
607.353
614.167
621.065
628.008
635.018
642.066
649.166
656.294
663.457
670.632
677.826
685.023
692.226
699.412
706.587
713.727
720.835
727.889
734.89
741.82
748.677
755.443
762.121
768.68
775.116
781.46
787.652
793.683
799.507
805.116
810.454
815.507
820.221
824.573
828.51
832.001
834.996
837.45
839.315
840.381
840.833
840.889
839.705
837.976
835.101
831.457
826.648
820.895
813.932
805.88
796.568
786.062
774.329
761.418
747.224
731.984
715.514
697.994
679.212
659.171
637.49
614.042
588.099
559.032
527.723
495.226
465.354
444.202
432.557
429.615
435.62
438.195
443.354
446.522
451.596
455.161
460.146
464
468.92
472.998
477.877
482.133
486.992
491.39
496.242
500.754
505.606
510.205
515.059
519.724
524.577
529.286
534.133
538.866
543.696
548.433
553.237
558.019
562.847
567.64
572.456
577.224
581.99
586.695
591.372
595.97
600.516
604.963
609.33
613.577
617.717
621.703
625.559
629.227
632.736
636.025
639.12
641.964
644.577
646.906
648.963
650.701
652.126
653.193
653.906
654.274
654.403
654.221
653.493
652.471
650.917
648.995
646.551
643.693
640.325
636.522
632.226
627.49
622.285
616.654
610.614
604.219
597.44
590.381
582.984
575.368
567.475
559.462
551.278
543.009
534.669
526.338
518.02
509.776
501.589
493.365
485.126
476.922
468.65
460.301
451.735
442.903
433.646
424.078
414.697
406.896
403.168
402.123
402.101
401.182
406.021
408.072
412.182
414.62
418.637
421.309
425.202
428.022
431.789
434.702
438.348
441.313
444.843
447.826
451.243
454.215
457.514
460.447
463.623
466.491
469.535
472.318
475.204
477.853
480.547
483.026
485.514
487.84
490.132
492.236
494.265
496.083
497.79
499.264
500.595
501.676
502.584
503.225
503.606
503.764
503.786
503.398
502.86
501.958
500.874
499.445
497.815
495.86
493.698
491.232
488.565
485.623
482.496
479.146
475.657
471.918
468.069
464.026
459.901
455.659
451.366
447.021
442.664
438.299
433.941
429.702
425.532
421.533
417.662
414.007
410.519
407.24
404.158
401.309
398.669
396.265
394.049
392.086
390.298
388.767
387.403
386.265
385.268
384.451
383.727
383.121
382.555
382.034
381.501
380.982
380.472
380.151
380.028
380.505
381.77
384.276
388.869
392.566
393.628
355.34
358.79
360.209
362.997
364.512
367.148
368.673
371.103
372.587
374.786
376.182
378.146
379.416
381.136
382.249
383.714
384.642
385.84
386.557
387.473
387.953
388.537
388.811
388.988
389.036
388.947
388.619
388.215
387.476
386.647
385.495
384.246
382.69
381.037
379.097
377.075
374.795
372.442
369.864
367.228
364.413
361.556
358.55
355.542
352.422
349.335
346.18
343.091
339.979
336.964
333.97
331.082
328.284
325.648
323.142
320.807
318.644
316.684
314.931
313.408
312.12
311.082
310.304
309.839
309.631
309.585
309.894
310.403
311.209
312.216
313.505
314.987
316.731
318.66
320.829
323.171
325.73
328.448
331.345
334.398
337.619
340.965
344.441
348.004
351.654
355.346
359.079
362.806
366.532
370.226
373.91
377.586
381.32
385.165
389.348
394.124
399.735
406.717
412.278
414.545
296.18
297.321
297.739
298.443
298.766
299.215
299.405
299.548
299.574
299.525
299.225
298.969
298.389
297.898
297.051
296.312
295.21
294.22
292.874
291.638
290.063
288.594
286.815
285.139
283.218
281.378
279.338
277.378
275.255
273.229
271.079
269.042
266.924
264.934
262.906
261.013
259.12
257.376
255.673
254.126
252.661
251.359
250.172
249.16
248.288
247.602
247.078
246.791
246.667
246.65
246.976
247.425
248.151
248.993
250.095
251.329
252.81
254.437
256.299
258.317
260.561
262.967
265.592
268.388
271.398
274.59
277.981
281.553
285.327
289.284
293.448
297.803
302.372
307.14
312.13
317.329
322.759
328.41
334.302
340.422
346.792
353.398
360.258
367.357
374.705
382.283
390.092
398.104
406.312
414.681
423.202
431.849
440.628
449.552
458.702
468.309
479.03
490.677
502.356
508.127
238.288
237.08
236.544
235.42
234.702
233.51
232.641
231.38
230.394
229.073
227.994
226.638
225.492
224.125
222.943
221.589
220.403
219.087
217.93
216.681
215.585
214.431
213.427
212.397
211.516
210.633
209.9
209.188
208.627
208.106
207.738
207.434
207.286
207.224
207.221
207.429
207.678
208.119
208.62
209.305
210.069
210.996
212.017
213.19
214.469
215.891
217.426
219.1
220.89
222.815
224.869
227.051
229.362
231.79
234.351
237.028
239.842
242.773
245.845
249.038
252.375
255.839
259.453
263.2
267.103
271.149
275.36
279.725
284.265
288.973
293.869
298.95
304.235
309.724
315.435
321.373
327.558
333.995
340.707
347.702
355.005
362.63
370.606
378.949
387.693
396.863
406.496
416.629
427.311
438.591
450.537
463.216
476.722
491.157
506.641
523.254
541.009
559.498
574.205
580.767
259.796
259.231
258.93
258.284
257.767
257.002
256.283
255.379
254.475
253.424
252.355
251.162
249.959
248.64
247.324
245.915
244.51
243.043
241.581
240.088
238.604
237.119
235.65
234.208
232.792
231.427
230.102
228.848
227.649
226.541
225.503
224.572
223.727
223.001
222.377
221.887
221.514
221.318
221.236
221.23
221.497
221.797
222.329
222.927
223.734
224.628
225.717
226.907
228.279
229.764
231.421
233.198
235.141
237.209
239.448
241.804
244.318
246.956
249.748
252.671
255.745
258.957
262.322
265.83
269.493
273.308
277.283
281.419
285.723
290.199
294.855
299.694
304.725
309.957
315.4
321.062
326.954
333.087
339.472
346.123
353.055
360.284
367.827
375.704
383.935
392.543
401.553
410.994
420.894
431.286
442.211
453.72
465.907
478.844
492.674
507.533
523.527
540.294
554.051
560.277
319.263
320.902
321.539
322.702
323.271
324.242
324.71
325.453
325.803
326.266
326.459
326.557
326.563
326.395
326.056
325.649
325
324.334
323.393
322.463
321.248
320.056
318.586
317.147
315.445
313.778
311.882
310.01
307.94
305.907
303.702
301.549
299.253
297.023
294.681
292.419
290.076
287.837
285.551
283.388
281.216
279.199
277.234
275.432
273.723
272.188
270.783
269.565
268.506
267.648
266.973
266.528
266.314
266.245
266.404
266.816
267.389
268.204
269.194
270.42
271.827
273.462
275.28
277.318
279.541
281.98
284.601
287.414
290.404
293.578
296.926
300.452
304.145
308.016
312.053
316.265
320.64
325.187
329.89
334.761
339.763
344.911
350.177
355.572
361.068
366.673
372.36
378.134
383.98
389.898
395.889
401.957
408.104
414.509
421.303
428.902
437.623
447.892
458.77
464.489
370.219
373.633
375.05
377.83
379.38
382.027
383.621
386.095
387.684
389.972
391.541
393.639
395.148
397.034
398.431
400.096
401.338
402.765
403.813
404.983
405.806
406.698
407.266
407.857
408.151
408.347
408.405
408.337
408.009
407.6
406.935
406.181
405.177
404.079
402.742
401.312
399.578
397.724
395.599
393.355
390.87
388.277
385.482
382.601
379.555
376.449
373.234
369.985
366.678
363.371
360.056
356.778
353.533
350.356
347.241
344.266
341.417
338.734
336.2
333.866
331.716
329.79
328.081
326.615
325.384
324.401
323.644
323.142
322.898
322.814
322.916
323.334
323.861
324.652
325.537
326.639
327.818
329.168
330.569
332.094
333.713
335.446
337.254
339.159
341.124
343.189
345.306
347.522
349.8
352.198
354.706
357.4
360.305
363.496
366.95
371.044
376.176
382.785
387.643
389.43
407.855
412.619
414.643
418.671
421.083
425
427.642
431.419
434.197
437.839
440.748
444.307
447.303
450.784
453.827
457.229
460.285
463.602
466.639
469.863
472.852
475.967
478.878
481.869
484.675
487.517
490.193
492.859
495.364
497.828
500.125
502.352
504.403
506.354
508.115
509.751
511.263
512.623
513.807
514.803
515.58
516.118
516.376
516.463
516.301
515.782
515.048
513.976
512.655
511.011
509.102
506.884
504.4
501.628
498.6
495.312
491.79
488.058
484.146
480.07
475.842
471.448
466.938
462.333
457.652
452.928
448.184
443.509
438.88
434.375
429.987
425.777
421.735
417.896
414.202
410.728
407.416
404.329
401.399
398.674
396.042
393.597
391.221
388.984
386.777
384.683
382.583
380.548
378.482
376.462
374.422
372.471
370.593
369.141
368.135
367.758
368.607
372.361
375.493
376.385
424.691
430.475
432.958
437.916
440.988
445.862
449.33
454.127
457.89
462.641
466.64
471.372
475.563
480.299
484.646
489.4
493.877
498.657
503.241
508.051
512.72
517.558
522.294
527.155
531.94
536.815
541.632
546.511
551.343
556.219
561.051
565.903
570.708
575.509
580.252
584.967
589.673
594.341
598.969
603.538
608.035
612.447
616.762
620.965
625.036
628.959
632.724
636.304
639.692
642.86
645.799
648.482
650.896
653.017
654.829
656.308
657.438
658.125
658.433
658.5
657.987
657.274
656.043
654.497
652.432
649.986
647.025
643.647
639.767
635.458
630.668
625.452
619.781
613.729
607.339
600.607
593.551
586.237
578.616
570.786
562.69
554.445
545.968
537.364
528.545
519.535
510.287
500.8
490.895
480.53
469.763
458.423
446.531
433.99
421.534
408.828
398.132
391.54
388.714
387.448
426.459
432.13
434.597
439.502
442.603
447.46
451.011
455.854
459.766
464.634
468.847
473.78
478.26
483.293
488.025
493.185
498.154
503.46
508.656
514.122
519.536
525.172
530.797
536.608
542.436
548.423
554.446
560.607
566.812
573.144
579.526
586.017
592.563
599.206
605.906
612.694
619.539
626.456
633.424
640.452
647.523
654.638
661.788
668.967
676.168
683.383
690.601
697.809
704.991
712.158
719.29
726.38
733.416
740.388
747.288
754.101
760.828
767.438
773.934
780.275
786.446
792.481
798.293
803.897
809.219
814.255
818.937
823.251
827.133
830.561
833.476
835.84
837.6
838.511
838.866
838.795
837.353
835.447
832.241
828.259
822.935
816.561
808.725
799.573
788.788
776.462
762.414
746.486
728.723
708.835
686.758
662.043
634.401
603.303
569.552
532.692
495.595
460.596
435.422
418.79
434.848
439.399
441.422
445.452
448.021
452.021
454.971
458.964
462.217
466.248
469.768
473.875
477.64
481.858
485.86
490.219
494.454
498.98
503.45
508.167
512.879
517.807
522.773
527.934
533.163
538.576
544.08
549.759
555.544
561.499
567.576
573.822
580.206
586.765
593.478
600.375
607.443
614.705
622.139
629.766
637.575
645.58
653.77
662.152
670.715
679.504
688.509
697.752
707.243
716.907
726.783
736.833
747.069
757.467
768.026
778.724
789.563
800.508
811.566
822.705
833.936
845.233
856.602
868.027
879.501
891.008
902.528
914.042
925.512
936.908
948.304
959.61
970.856
981.976
992.976
1003.77
1014.31
1024.56
1034.37
1043.69
1052.33
1060.17
1066.95
1072.45
1075.81
1077.23
1077.39
1072.95
1065.67
1053.01
1035.19
1010.06
976.597
932.314
876.824
807.152
725.038
634.432
553.225
488.489
482.261
485.019
486.352
489.084
490.901
493.671
495.779
498.585
500.916
503.78
506.309
509.254
511.974
515.018
517.913
521.07
524.141
527.429
530.678
534.114
537.548
541.145
544.771
548.545
552.372
556.337
560.374
564.545
568.808
573.195
577.689
582.314
587.058
591.938
596.946
602.095
607.378
612.803
618.416
624.202
630.188
636.377
642.79
649.439
656.347
663.486
670.875
678.51
686.393
694.589
703.084
711.91
721.07
730.582
740.451
750.685
761.313
772.331
783.768
795.633
807.957
820.753
834.058
847.898
862.286
877.244
892.781
908.918
925.66
943.033
961.064
979.463
998.34
1017.61
1037.22
1057.11
1077.23
1097.51
1117.93
1138.45
1159.05
1179.72
1200.41
1221.21
1242.11
1263.06
1283.85
1303.96
1322.86
1339.22
1349.1
1352.86
1348.2
1320.9
1271.28
1196.05
1093.13
963.513
802.42
630.334
666.004
665.943
666.953
667.705
668.864
670.003
671.206
672.54
673.795
675.246
676.572
678.107
679.518
681.123
682.627
684.3
685.9
687.644
689.343
691.162
692.961
694.861
696.763
698.751
700.759
702.844
704.965
707.162
709.413
711.74
714.142
716.627
719.2
721.865
724.632
727.506
730.5
733.624
736.86
740.229
743.732
747.377
751.173
755.125
759.241
763.523
767.985
772.631
777.478
782.536
787.815
793.328
799.087
805.106
811.403
818.001
824.876
832.073
839.595
847.456
855.673
864.245
873.233
882.717
892.674
903.176
914.217
925.869
938.139
951.087
964.483
978.772
993.766
1009.7
1026.51
1044.36
1063.26
1083.35
1104.68
1127.37
1151.52
1177.25
1204.69
1234.03
1265.13
1296.9
1329.37
1360.97
1390.14
1414.56
1428.52
1433.67
1431.42
1415.09
1383.07
1321.89
1233.71
1122.41
997.864
848.981
1602.84
1603.5
1603.43
1602.97
1602.32
1601.8
1600.92
1600.37
1599.39
1598.79
1597.79
1597.12
1596.1
1595.35
1594.32
1593.47
1592.43
1591.49
1590.42
1589.4
1588.28
1587.17
1586.01
1584.83
1583.62
1582.37
1581.12
1579.82
1578.53
1577.2
1575.86
1574.48
1573.09
1571.66
1570.23
1568.75
1567.26
1565.73
1564.19
1562.61
1561.01
1559.36
1557.69
1555.97
1554.21
1552.38
1550.48
1548.48
1546.37
1544.15
1541.79
1539.29
1536.65
1533.85
1530.91
1527.83
1524.57
1521.03
1517.24
1512.99
1508.31
1502.96
1497.15
1491.1
1484.66
1478
1470.93
1463.6
1455.8
1447.64
1439
1429.9
1420.03
1409.64
1398.36
1386.36
1373.33
1359.39
1344.28
1328.08
1310.59
1291.85
1271.74
1250.24
1227.22
1202.33
1174.6
1141.85
1103.1
1056.19
995.981
916.647
816.027
705.301
584.543
535.349
556.114
721.953
886.83
939.967
865.883
324.722
176.601
119.702
95.2637
82.33
76.1287
73.1613
72.1893
74.0342
80.9586
97.4708
118.898
156.24
207.125
271.571
349.003
444.077
560.321
610.176
693.16
329.164
219.138
154.33
121.757
104.135
92.9366
87.4671
85.5419
87.54
99.6666
115.601
144.584
184.771
237.983
299.996
372.432
459.603
544.765
568.442
544.573
318.727
242.264
180.153
147.624
125.459
111.88
105.98
104.313
108.677
120.224
144.151
174.749
218.799
269.566
326.196
390.277
462.696
514.395
522.478
444.611
305.161
256.281
198.158
171.195
146.156
134.088
128.452
126.902
131.267
154.178
177.739
213.988
256.466
302.103
352.301
406.669
455.37
474.164
474.254
388.176
300.413
266.286
214.674
191.992
168.732
159.189
155.462
155.219
175.092
195.484
222.884
257.405
292.863
330.857
370.828
410.072
432.651
426.372
427.71
360.072
300.359
273.825
232.02
214.525
201.043
197.446
197.435
211.712
227.901
247.925
272.688
299.483
326.829
355.9
383.528
398.921
396.77
367.873
383.357
352.308
312.834
296.043
273.006
265.947
263.432
263.073
269.923
279.162
291.201
306.024
322.38
339.261
355.566
369.823
376.631
374.923
343.635
300.627
349.821
386.868
375.212
371.397
361.617
356.859
351.345
349.145
348.616
350.782
355.09
359.391
364.162
366.784
367.787
366.312
357.913
331.042
277.556
232.656
331.169
499.022
483.794
476.408
457.505
448.613
434.272
427.234
417.559
412.369
404.315
397.849
388.685
378.164
365.473
349.199
316.748
268.532
204.193
161.83
324.858
563.314
541.919
532.262
509.202
498.156
479.512
469.229
452.395
440.832
423.92
409.761
390.537
370.468
341.845
302.353
252.03
198.253
143.342
116.375
327.602
544.481
524.324
515.263
493.5
483.109
465.705
456.378
441.401
431.2
416.531
404.016
387.453
369.704
345.126
309.435
259.75
203.661
143.198
113.227
326.03
457.713
446.515
440.876
424.917
417.616
406.652
401.385
395.705
392.901
389.457
385.975
381.292
374.26
364.766
353.38
326.919
279.399
212.196
170.776
324.237
358.971
343.868
338.881
330.921
327.519
324.406
323.563
326.191
331.059
338.583
346.596
354.829
362.489
366.301
367.648
363.229
339.566
286.931
239.34
325.642
336.694
296.815
279.281
254.084
245.69
242.725
242.533
250.908
261.62
275.616
292.944
311.764
331.99
352.116
370.581
379.767
380.961
352.315
307.658
335.415
346.797
288.192
262.295
221.049
203.634
189.132
184.79
184.309
198.106
215.373
236.842
263.159
291.973
321.694
353.8
385.647
403.676
404.793
374.349
370.064
374.525
289.325
256.04
206.269
184.317
161.484
151.829
147.752
147.155
165.201
186.575
214.64
250.471
287.681
327.74
370.172
413.999
438.688
433.72
420.224
429.607
294.013
246.227
190.014
163.837
140.066
128.556
123.207
121.754
125.968
147.126
171.323
207.665
251.239
298.666
350.879
407.714
460.334
480.503
471.561
531.603
308.238
233.7
173.723
141.929
120.382
107.422
101.739
100.161
104.699
116.032
139.023
169.948
213.867
265.788
324.088
390.671
467.076
518.632
523.004
686.661
318.123
211.265
148.262
116.995
99.863
89.522
84.4263
82.6396
84.6828
96.1635
112.089
140.587
180.782
234.256
297.364
371.272
461.1
548.513
570.815
863.38
313.53
170.703
115.743
92.0808
79.593
73.2038
70.4986
69.7157
72.076
78.7652
94.3885
116.021
152.747
203.771
268.904
347.713
444.77
563.131
613.206
646.054
32.1745
12.7362
11.3229
11.19
11.171
11.1705
11.1708
11.1706
11.1705
11.1705
11.1706
11.1708
11.1705
11.171
11.19
11.3229
12.7362
32.1744
646.053
672.74
55.0628
17.0386
12.087
11.3039
11.1803
11.1547
11.1529
11.1534
11.1536
11.1536
11.1534
11.1529
11.1547
11.1803
11.3039
12.087
17.0386
55.0628
672.74
698.453
71.0937
21.1542
13.3033
11.5874
11.2261
11.1552
11.1382
11.1358
11.1355
11.1355
11.1358
11.1382
11.1552
11.2261
11.5874
13.3033
21.1542
71.0935
698.453
723.136
85.8503
25.1369
14.6461
12.0431
11.3371
11.1684
11.1265
11.1183
11.1171
11.1171
11.1183
11.1265
11.1684
11.3371
12.0431
14.6461
25.1369
85.8503
723.136
746.743
101.867
29.2065
16.0658
12.5885
11.5234
11.2064
11.1273
11.105
11.1003
11.1003
11.105
11.1273
11.2064
11.5234
12.5885
16.0658
29.2065
101.867
746.743
769.31
118.432
33.3669
17.5406
13.1971
11.7624
11.283
11.1366
11.0944
11.0843
11.0843
11.0944
11.1366
11.283
11.7624
13.1971
17.5406
33.3669
118.433
769.31
790.728
134.968
37.5676
19.0511
13.8502
12.0431
11.3872
11.16
11.0918
11.0718
11.0718
11.0918
11.16
11.3872
12.0431
13.8502
19.0511
37.5676
134.968
790.728
810.982
151.251
41.7801
20.5852
14.5352
12.3571
11.5178
11.2031
11.0955
11.0625
11.0625
11.0955
11.2031
11.5178
12.3571
14.5352
20.5852
41.7802
151.251
810.982
829.955
167.079
45.9691
22.1303
15.2422
12.6968
11.6708
11.2604
11.1065
11.0594
11.0594
11.1065
11.2604
11.6708
12.6968
15.2422
22.1303
45.9692
167.079
829.955
847.653
182.401
50.1209
23.6797
15.9648
13.0568
11.8431
11.3324
11.129
11.0619
11.0619
11.129
11.3324
11.8431
13.0568
15.9648
23.6797
50.121
182.402
847.653
863.991
197.096
54.2105
25.2247
16.6968
13.4321
12.0315
11.4179
11.1609
11.0697
11.0698
11.1609
11.4179
12.0315
13.4321
16.6968
25.2248
54.2106
197.096
863.99
879.013
211.155
58.2321
26.7619
17.4347
13.8193
12.2335
11.5156
11.2021
11.0862
11.0862
11.2021
11.5156
12.2335
13.8193
17.4347
26.7619
58.2323
211.156
879.013
892.663
224.491
62.1651
28.2844
18.1745
14.2149
12.4467
11.6242
11.2528
11.1113
11.1113
11.2528
11.6242
12.4467
14.2149
18.1745
28.2845
62.1653
224.491
892.663
905.026
237.118
66.009
29.7908
18.9141
14.6169
12.6691
11.7427
11.3126
11.1446
11.1446
11.3126
11.7427
12.6691
14.6169
18.9141
29.7908
66.0092
237.119
905.026
916.068
248.971
69.7457
31.2753
19.6506
15.023
12.899
11.8698
11.381
11.1861
11.1861
11.381
11.8698
12.899
15.0231
19.6507
31.2755
69.7459
248.97
916.067
925.904
260.089
73.3781
32.7379
20.383
15.4319
13.1352
12.0048
11.4576
11.2357
11.2357
11.4576
12.0048
13.1352
15.4319
20.383
32.7379
73.3783
260.09
925.904
934.512
270.424
76.8906
34.1733
21.1087
15.8417
13.3762
12.1466
11.5418
11.293
11.293
11.5418
12.1466
13.3762
15.8418
21.1088
34.1734
76.8908
270.423
934.512
942.037
280.035
80.2892
35.5826
21.8277
16.2519
13.6211
12.2944
11.6331
11.3579
11.3579
11.6331
12.2944
13.6211
16.2519
21.8276
35.5825
80.2892
280.036
942.036
948.451
288.886
83.5602
36.9606
22.5374
16.6609
13.8691
12.4475
11.7309
11.4299
11.4299
11.7309
12.4475
13.8691
16.661
22.5374
36.9608
83.5604
288.885
948.45
953.925
297.051
86.7124
38.3098
23.2383
17.0685
14.1194
12.6053
11.8348
11.5085
11.5085
11.8348
12.6053
14.1194
17.0685
23.2383
38.3097
86.7123
297.052
953.924
958.416
304.506
89.734
39.6248
23.9282
17.4734
14.3712
12.7671
11.9442
11.5934
11.5934
11.9442
12.7671
14.3712
17.4735
23.9283
39.625
89.7342
304.504
958.415
962.12
311.326
92.6356
40.9093
24.608
17.8757
14.6242
12.9325
12.0587
11.684
11.684
12.0587
12.9325
14.6242
17.8757
24.608
40.9092
92.6355
311.327
962.12
964.967
317.506
95.4074
42.1578
25.2754
18.2741
14.8776
13.1009
12.1777
11.78
11.78
12.1777
13.1009
14.8776
18.2742
25.2755
42.1581
95.4078
317.503
964.966
967.18
323.102
98.0618
43.3751
25.9318
18.669
15.1313
13.2719
12.3009
11.8809
11.8809
12.3009
13.2719
15.1313
18.669
25.9318
43.375
98.0616
323.105
967.179
968.649
328.148
100.59
44.5553
26.5748
19.0592
15.3846
13.445
12.4277
11.9862
11.9862
12.4277
13.445
15.3846
19.0593
26.575
44.5556
100.59
328.144
968.648
969.635
332.653
103.005
45.7045
27.2064
19.4453
15.6374
13.62
12.5579
12.0955
12.0955
12.5579
13.62
15.6374
19.4453
27.2063
45.7042
103.005
332.657
969.634
969.97
336.705
105.299
46.8159
27.8239
19.826
15.8892
13.7964
12.691
12.2085
12.2085
12.691
13.7964
15.8892
19.8261
27.824
46.8163
105.3
336.7
969.969
969.834
340.242
107.488
47.8975
28.4297
20.2021
16.14
13.9741
12.8267
12.3248
12.3248
12.8267
13.9741
16.14
20.2021
28.4296
47.8972
107.488
340.246
969.833
969.425
343.403
109.561
48.9414
29.021
20.5725
16.3892
14.1525
12.9646
12.4441
12.4441
12.9646
14.1525
16.3892
20.5725
29.0212
48.9418
109.561
343.397
969.424
968.579
346.14
111.539
49.9569
29.6008
20.9379
16.637
14.3316
13.1045
12.5659
12.5659
13.1045
14.3316
16.637
20.9379
29.6007
49.9565
111.538
346.144
968.578
967.379
348.534
113.406
50.9352
30.1658
21.2973
16.8828
14.511
13.2461
12.69
12.69
13.2461
14.511
16.8828
21.2973
30.166
50.9357
113.406
348.528
967.378
965.891
350.552
115.188
51.8872
30.7196
21.6515
17.1267
14.6907
13.389
12.8161
12.8161
13.389
14.6907
17.1267
21.6515
30.7195
51.8867
115.187
350.556
965.89
964.155
352.265
116.864
52.8028
31.2587
21.9995
17.3684
14.8702
13.5331
12.944
12.944
13.5331
14.8702
17.3684
21.9995
31.2588
52.8033
116.865
352.259
964.155
962.205
353.658
118.465
53.6944
31.7868
22.3423
17.608
15.0495
13.6782
13.0733
13.0733
13.6782
15.0495
17.608
22.3422
31.7867
53.6937
118.463
353.662
962.203
960.073
354.766
119.965
54.5507
32.3005
22.6787
17.8451
15.2283
13.8239
13.2039
13.2039
13.8239
15.2283
17.8451
22.6787
32.3006
54.5512
119.966
354.761
960.074
957.789
355.615
121.399
55.3853
32.8039
23.0099
18.0798
15.4067
13.9702
13.3355
13.3355
13.9702
15.4067
18.0799
23.0099
32.8037
55.3846
121.397
355.618
957.788
955.381
356.175
122.736
56.186
33.293
23.3347
18.3118
15.5842
14.1168
13.468
13.468
14.1168
15.5842
18.3118
23.3346
33.2931
56.1865
122.737
356.171
955.382
952.87
356.557
124.016
56.9676
33.7724
23.6544
18.5414
15.761
14.2636
13.6011
13.6011
14.2636
15.761
18.5415
23.6544
33.7723
56.9668
124.013
356.559
952.868
950.286
356.613
125.204
57.7167
34.238
23.9676
18.7681
15.9367
14.4103
13.7346
13.7346
14.4103
15.9366
18.768
23.9676
34.2381
57.7173
125.206
356.611
950.287
947.636
356.52
126.342
58.4494
34.6947
24.2759
18.9922
16.1114
14.557
13.8684
13.8684
14.557
16.1114
18.9923
24.276
34.6946
58.4485
126.338
356.519
947.634
944.957
356.291
127.392
59.1511
35.1381
24.5779
19.2134
16.2848
14.7033
14.0024
14.0024
14.7033
16.2848
19.2133
24.5778
35.138
59.1518
127.395
356.29
944.959
942.244
355.82
128.406
59.8395
35.5733
24.8751
19.4319
16.4571
14.8493
14.1364
14.1364
14.8494
16.4572
19.432
24.8753
35.5733
59.8385
128.402
355.826
942.242
939.539
355.244
129.335
60.4986
35.9959
25.1662
19.6474
16.628
14.9948
14.2703
14.2703
14.9947
16.6279
19.6473
25.1659
35.9957
60.4995
129.339
355.236
939.541
936.821
354.505
130.251
61.149
36.4113
25.4527
19.8603
16.7975
15.1397
14.404
14.404
15.1398
16.7976
19.8605
25.453
36.4115
61.1479
130.246
354.511
936.818
934.145
353.722
131.099
61.7743
36.8149
25.7334
20.0701
16.9655
15.2839
14.5373
14.5373
15.2838
16.9653
20.0699
25.7329
36.8145
61.7751
131.104
353.714
934.147
931.466
352.872
131.987
62.3994
37.2125
26.0097
20.2774
17.132
15.4273
14.6702
14.6703
15.4274
17.1321
20.2777
26.0102
37.213
62.3985
131.981
352.877
931.463
928.859
352.024
132.869
63.0126
37.5999
26.2805
20.4816
17.2969
15.5699
14.8026
14.8025
15.5698
17.2967
20.4813
26.2799
37.5991
63.0133
132.875
352.019
928.862
926.333
351.164
133.826
63.6387
37.9833
26.5474
20.6833
17.4603
15.7116
14.9344
14.9344
15.7117
17.4605
20.6837
26.5482
37.9843
63.6384
133.819
351.166
926.33
923.871
350.422
134.84
64.2638
38.3588
26.8093
20.882
17.622
15.8522
15.0654
15.0654
15.8521
17.6217
20.8816
26.8085
38.3576
64.264
134.846
350.42
923.875
921.484
349.753
135.976
64.912
38.7329
27.0679
21.0783
17.7821
15.9919
15.1958
15.1959
15.992
17.7824
21.0789
27.0689
38.7345
64.9124
135.97
349.755
921.481
919.155
349.293
137.189
65.565
39.1016
27.3221
21.2718
17.9404
16.1304
15.3253
15.3252
16.1303
17.9402
21.2712
27.321
39.0999
65.5646
137.196
349.292
919.158
916.897
348.942
138.533
66.246
39.4712
27.5738
21.4631
18.0973
16.2679
15.4541
15.4541
16.2681
18.0977
21.4638
27.5752
39.4735
66.2475
138.527
348.943
916.893
914.693
348.851
139.937
66.9331
39.8374
27.8218
21.6517
18.2523
16.4041
15.5817
15.5816
16.404
18.252
21.651
27.8204
39.8351
66.9318
139.944
348.853
914.696
912.56
348.916
141.463
67.6495
40.2064
28.0679
21.8384
18.4059
16.5394
15.7086
15.7087
16.5396
18.4064
21.8394
28.0699
40.2097
67.6525
141.459
348.918
912.554
910.479
349.098
143.022
68.3711
40.5735
28.3111
22.0226
18.5577
16.6731
15.8342
15.8342
16.6729
18.5573
22.0217
28.3094
40.5705
68.3689
143.029
349.101
910.482
908.471
349.471
144.676
69.1203
40.9447
28.5532
22.2052
18.7081
16.806
15.9592
15.9593
16.8063
18.7088
22.2066
28.5559
40.9492
69.1254
144.675
349.481
908.463
906.512
349.99
146.342
69.873
41.315
28.793
22.3855
18.8567
16.9373
16.0827
16.0826
16.937
18.8562
22.3844
28.7908
41.3113
69.87
146.347
349.989
906.516
904.629
350.63
148.077
70.6511
41.6902
29.0321
22.5644
19.0041
17.0677
16.2056
16.2058
17.0682
19.0051
22.5663
29.0357
41.6964
70.659
148.081
350.645
904.62
902.794
351.376
149.806
71.4301
42.065
29.2695
22.7414
19.1497
17.1965
16.3268
16.3268
17.1962
19.1491
22.74
29.2669
42.0607
71.4265
149.811
351.379
902.796
901.035
352.209
151.58
72.2316
42.4452
29.5067
22.9171
19.2942
17.3245
16.4477
16.4479
17.3252
19.2956
22.9198
29.5117
42.4537
72.2436
151.592
352.231
901.021
899.321
353.116
153.335
73.0313
42.825
29.7426
23.0911
19.437
17.4508
16.5666
16.5665
17.4504
19.4362
23.0895
29.7397
42.8206
73.0281
153.339
353.127
899.319
897.684
354.081
155.115
73.8509
43.2104
29.9786
23.264
19.5787
17.5764
16.6853
16.6856
17.5774
19.5808
23.2679
29.9856
43.2223
73.8685
155.138
354.116
897.665
896.089
355.096
156.864
74.6654
43.5954
30.2137
23.4356
19.7188
17.7001
16.8017
16.8017
17.6998
19.7181
23.434
30.2107
43.5913
74.6644
156.873
355.122
896.082
894.571
356.143
158.624
75.4974
43.9856
30.4488
23.6061
19.858
17.8234
16.9184
16.9188
17.8249
19.861
23.6117
30.4589
44.0027
75.5237
158.662
356.199
894.542
893.092
357.219
160.343
76.3209
44.3755
30.6836
23.7754
19.9955
17.9447
17.0324
17.0324
17.9445
19.995
23.7741
30.681
44.3729
76.3253
160.362
357.27