/*--------------------------------*- C++ -*----------------------------------*\
| =========                 |                                                 |
| \\      /  F ield         | OpenFOAM: The Open Source CFD Toolbox           |
|  \\    /   O peration     | Version:  2.1.0                                 |
|   \\  /    A nd           | Web:      www.OpenFOAM.org                      |
|    \\/     M anipulation  |                                                 |
\*---------------------------------------------------------------------------*/
FoamFile
{
    version     2.0;
    format      ascii;
    class       surfaceScalarField;
    location    "0.46";
    object      phi;
}
// * * * * * * * * * * * * * * * * * * * * * * * * * * * * * * * * * * * * * //

dimensions      [0 3 -1 0 0 0 0];

internalField   nonuniform List<scalar> 
12460
(
-2.60193e-05
-3.55991e-09
-2.59814e-05
-3.9454e-08
-2.59205e-05
-6.23768e-08
-2.58479e-05
-7.40388e-08
-2.57684e-05
-8.0928e-08
-2.56843e-05
-8.55511e-08
-2.55967e-05
-8.88847e-08
-2.55065e-05
-9.15069e-08
-2.5414e-05
-9.37226e-08
-2.53195e-05
-9.57227e-08
-2.52231e-05
-9.76094e-08
-2.51248e-05
-9.94473e-08
-2.50246e-05
-1.01273e-07
-2.49226e-05
-1.03103e-07
-2.48186e-05
-1.04957e-07
-2.47128e-05
-1.06833e-07
-2.4605e-05
-1.08744e-07
-2.44953e-05
-1.10685e-07
-2.43835e-05
-1.12663e-07
-2.42697e-05
-1.1467e-07
-2.41538e-05
-1.16711e-07
-2.40358e-05
-1.18774e-07
-2.39157e-05
-1.20878e-07
-2.37934e-05
-1.23024e-07
-2.36689e-05
-1.25176e-07
-2.35422e-05
-1.27374e-07
-2.34131e-05
-1.2971e-07
-2.32816e-05
-1.32137e-07
-2.31475e-05
-1.34641e-07
-2.30108e-05
-1.37217e-07
-2.28715e-05
-1.39875e-07
-2.27293e-05
-1.42617e-07
-2.25844e-05
-1.45455e-07
-2.24364e-05
-1.48392e-07
-2.22854e-05
-1.51439e-07
-2.21312e-05
-1.54594e-07
-2.19737e-05
-1.57868e-07
-2.18128e-05
-1.61263e-07
-2.16483e-05
-1.64792e-07
-2.14802e-05
-1.68466e-07
-2.13082e-05
-1.72311e-07
-2.11321e-05
-1.76322e-07
-2.09519e-05
-1.80507e-07
-2.07672e-05
-1.84877e-07
-2.0578e-05
-1.89434e-07
-2.0384e-05
-1.94181e-07
-2.01851e-05
-1.9912e-07
-1.9981e-05
-2.04246e-07
-1.97717e-05
-2.09548e-07
-1.95568e-05
-2.15037e-07
-1.93362e-05
-2.20667e-07
-1.911e-05
-2.26307e-07
-1.88779e-05
-2.32264e-07
-1.86393e-05
-2.38723e-07
-1.83938e-05
-2.45529e-07
-1.81414e-05
-2.52557e-07
-1.7882e-05
-2.5943e-07
-1.76161e-05
-2.66007e-07
-1.73437e-05
-2.72456e-07
-1.70647e-05
-2.78977e-07
-1.67791e-05
-2.85643e-07
-1.64867e-05
-2.92464e-07
-1.61872e-05
-2.99491e-07
-1.58805e-05
-3.06787e-07
-1.55661e-05
-3.14361e-07
-1.52439e-05
-3.22259e-07
-1.49134e-05
-3.30505e-07
-1.45742e-05
-3.39163e-07
-1.4226e-05
-3.48268e-07
-1.38681e-05
-3.57852e-07
-1.35001e-05
-3.67941e-07
-1.31215e-05
-3.78589e-07
-1.27317e-05
-3.89831e-07
-1.23299e-05
-4.01736e-07
-1.19155e-05
-4.14376e-07
-1.14877e-05
-4.27846e-07
-1.10454e-05
-4.42271e-07
-1.05875e-05
-4.57809e-07
-1.01128e-05
-4.74682e-07
-9.61955e-06
-4.93225e-07
-9.10567e-06
-5.13847e-07
-8.56857e-06
-5.37058e-07
-8.00501e-06
-5.63517e-07
-7.411e-06
-5.93955e-07
-6.782e-06
-6.28944e-07
-6.11326e-06
-6.68685e-07
-5.40039e-06
-7.12801e-07
-4.64066e-06
-7.59653e-07
-3.83538e-06
-8.05185e-07
-2.99465e-06
-8.40626e-07
-2.14638e-06
-8.48136e-07
-1.35359e-06
-7.92639e-07
-7.19459e-07
-6.33975e-07
-3.45971e-07
-3.73406e-07
-2.74661e-07
-7.15213e-08
-5.29527e-07
2.54422e-07
-1.42289e-06
8.93039e-07
-3.71663e-06
2.29372e-06
-9.28775e-06
5.57112e-06
1.54964e-05
-2.47841e-05
-3.13372e-05
-2.23482e-08
-3.12868e-05
-9.19162e-08
-3.12217e-05
-1.29519e-07
-3.11476e-05
-1.50057e-07
-3.10679e-05
-1.62643e-07
-3.09842e-05
-1.71142e-07
-3.08977e-05
-1.77282e-07
-3.08089e-05
-1.82103e-07
-3.07182e-05
-1.86176e-07
-3.06258e-05
-1.89844e-07
-3.05318e-05
-1.93309e-07
-3.04362e-05
-1.9668e-07
-3.03391e-05
-2.00035e-07
-3.02403e-05
-2.03402e-07
-3.014e-05
-2.0682e-07
-3.0038e-05
-2.10286e-07
-2.99344e-05
-2.13828e-07
-2.9829e-05
-2.17431e-07
-2.97219e-05
-2.21114e-07
-2.9613e-05
-2.24861e-07
-2.95023e-05
-2.28683e-07
-2.93898e-05
-2.32551e-07
-2.92753e-05
-2.3648e-07
-2.9159e-05
-2.40498e-07
-2.90408e-05
-2.44476e-07
-2.89208e-05
-2.48465e-07
-2.87988e-05
-2.52682e-07
-2.86749e-05
-2.57015e-07
-2.85491e-05
-2.61451e-07
-2.84212e-05
-2.65991e-07
-2.82913e-05
-2.70654e-07
-2.81593e-05
-2.75446e-07
-2.80252e-05
-2.80384e-07
-2.78889e-05
-2.85476e-07
-2.77503e-05
-2.90737e-07
-2.76094e-05
-2.96169e-07
-2.74661e-05
-3.01787e-07
-2.73204e-05
-3.07606e-07
-2.71722e-05
-3.13636e-07
-2.70213e-05
-3.19873e-07
-2.68678e-05
-3.26362e-07
-2.67115e-05
-3.33109e-07
-2.65524e-05
-3.40128e-07
-2.63903e-05
-3.4744e-07
-2.62251e-05
-3.55057e-07
-2.60567e-05
-3.62993e-07
-2.58849e-05
-3.71265e-07
-2.57096e-05
-3.7988e-07
-2.55306e-05
-3.8884e-07
-2.53478e-05
-3.98171e-07
-2.51609e-05
-4.07845e-07
-2.49699e-05
-4.1761e-07
-2.4775e-05
-4.27409e-07
-2.45766e-05
-4.3732e-07
-2.4375e-05
-4.47356e-07
-2.41702e-05
-4.57551e-07
-2.3962e-05
-4.6782e-07
-2.37502e-05
-4.77985e-07
-2.35348e-05
-4.88057e-07
-2.33157e-05
-4.98215e-07
-2.30929e-05
-5.08558e-07
-2.28664e-05
-5.1913e-07
-2.26361e-05
-5.29968e-07
-2.24019e-05
-5.41114e-07
-2.21637e-05
-5.52599e-07
-2.19216e-05
-5.64474e-07
-2.16755e-05
-5.76786e-07
-2.14251e-05
-5.89606e-07
-2.11705e-05
-6.03002e-07
-2.09114e-05
-6.17056e-07
-2.06476e-05
-6.3184e-07
-2.03788e-05
-6.47462e-07
-2.01048e-05
-6.64018e-07
-1.98249e-05
-6.81656e-07
-1.95389e-05
-7.00544e-07
-1.9246e-05
-7.20879e-07
-1.89454e-05
-7.42917e-07
-1.86364e-05
-7.66947e-07
-1.83178e-05
-7.93346e-07
-1.79885e-05
-8.22649e-07
-1.7647e-05
-8.55477e-07
-1.72917e-05
-8.92524e-07
-1.69207e-05
-9.34629e-07
-1.65321e-05
-9.82701e-07
-1.61238e-05
-1.03746e-06
-1.56936e-05
-1.09909e-06
-1.52398e-05
-1.16674e-06
-1.47622e-05
-1.23754e-06
-1.42626e-05
-1.30502e-06
-1.37473e-05
-1.35634e-06
-1.32284e-05
-1.36747e-06
-1.27242e-05
-1.29734e-06
-1.22706e-05
-1.08839e-06
-1.19478e-05
-6.97157e-07
-1.2018e-05
-2.27661e-09
-1.25622e-05
7.98017e-07
-1.39392e-05
2.26974e-06
-1.66711e-05
5.02562e-06
-2.17977e-05
1.06978e-05
2.6567e-05
-3.28684e-05
-3.43136e-05
-4.88945e-08
-3.42702e-05
-1.37805e-07
-3.4215e-05
-1.87196e-07
-3.41524e-05
-2.15132e-07
-3.4085e-05
-2.32418e-07
-3.40145e-05
-2.44065e-07
-3.39418e-05
-2.52387e-07
-3.38673e-05
-2.58887e-07
-3.37914e-05
-2.643e-07
-3.37143e-05
-2.69159e-07
-3.36361e-05
-2.73698e-07
-3.35568e-05
-2.78113e-07
-3.34764e-05
-2.82479e-07
-3.3395e-05
-2.8687e-07
-3.33125e-05
-2.91313e-07
-3.32289e-05
-2.95837e-07
-3.31442e-05
-3.00456e-07
-3.30583e-05
-3.05179e-07
-3.29712e-05
-3.10017e-07
-3.28829e-05
-3.14974e-07
-3.27932e-05
-3.20061e-07
-3.27022e-05
-3.25264e-07
-3.26097e-05
-3.30598e-07
-3.25157e-05
-3.36112e-07
-3.242e-05
-3.417e-07
-3.23227e-05
-3.4725e-07
-3.22241e-05
-3.52814e-07
-3.21241e-05
-3.58382e-07
-3.20229e-05
-3.6401e-07
-3.19205e-05
-3.69732e-07
-3.18168e-05
-3.75574e-07
-3.1712e-05
-3.81548e-07
-3.16059e-05
-3.87667e-07
-3.14985e-05
-3.93943e-07
-3.139e-05
-4.00385e-07
-3.12802e-05
-4.06997e-07
-3.11692e-05
-4.13785e-07
-3.1057e-05
-4.20765e-07
-3.09436e-05
-4.27962e-07
-3.0829e-05
-4.35338e-07
-3.07133e-05
-4.42937e-07
-3.05964e-05
-4.5077e-07
-3.04785e-05
-4.58838e-07
-3.03595e-05
-4.67164e-07
-3.02395e-05
-4.7575e-07
-3.01185e-05
-4.84607e-07
-2.99966e-05
-4.93745e-07
-2.98739e-05
-5.03171e-07
-2.97504e-05
-5.12877e-07
-2.96263e-05
-5.22844e-07
-2.95016e-05
-5.33014e-07
-2.93764e-05
-5.43315e-07
-2.92506e-05
-5.5361e-07
-2.91246e-05
-5.63742e-07
-2.89986e-05
-5.73737e-07
-2.88728e-05
-5.83688e-07
-2.87472e-05
-5.93765e-07
-2.86216e-05
-6.0389e-07
-2.84961e-05
-6.1391e-07
-2.83707e-05
-6.2388e-07
-2.82457e-05
-6.33847e-07
-2.81212e-05
-6.43853e-07
-2.79975e-05
-6.53914e-07
-2.78748e-05
-6.64025e-07
-2.77535e-05
-6.74203e-07
-2.76337e-05
-6.84465e-07
-2.75159e-05
-6.94836e-07
-2.74003e-05
-7.05339e-07
-2.72875e-05
-7.16019e-07
-2.71778e-05
-7.26944e-07
-2.70717e-05
-7.38184e-07
-2.69695e-05
-7.49847e-07
-2.68717e-05
-7.62029e-07
-2.67787e-05
-7.74904e-07
-2.66907e-05
-7.88687e-07
-2.66082e-05
-8.03635e-07
-2.65312e-05
-8.20096e-07
-2.64599e-05
-8.3847e-07
-2.63942e-05
-8.59243e-07
-2.6334e-05
-8.83125e-07
-2.62787e-05
-9.10936e-07
-2.6228e-05
-9.43515e-07
-2.61811e-05
-9.81809e-07
-2.61373e-05
-1.02677e-06
-2.60959e-05
-1.07914e-06
-2.60561e-05
-1.13909e-06
-2.60177e-05
-1.20543e-06
-2.59811e-05
-1.27444e-06
-2.59482e-05
-1.33823e-06
-2.5923e-05
-1.38186e-06
-2.59116e-05
-1.3792e-06
-2.59216e-05
-1.28761e-06
-2.59649e-05
-1.04537e-06
-2.60856e-05
-5.76626e-07
-2.62723e-05
1.84288e-07
-2.67867e-05
1.31235e-06
-2.78177e-05
3.30074e-06
-2.97479e-05
6.95581e-06
-3.32999e-05
1.42497e-05
3.11958e-05
-3.79287e-05
-3.69995e-05
-7.52476e-08
-3.69684e-05
-1.71822e-07
-3.69302e-05
-2.28394e-07
-3.68866e-05
-2.61774e-07
-3.68393e-05
-2.82639e-07
-3.67898e-05
-2.9655e-07
-3.67388e-05
-3.06325e-07
-3.66867e-05
-3.13812e-07
-3.66339e-05
-3.19906e-07
-3.65806e-05
-3.25285e-07
-3.65268e-05
-3.30218e-07
-3.64727e-05
-3.3497e-07
-3.64182e-05
-3.39614e-07
-3.63635e-05
-3.4426e-07
-3.63084e-05
-3.48924e-07
-3.62531e-05
-3.53658e-07
-3.61976e-05
-3.58462e-07
-3.61419e-05
-3.63362e-07
-3.6086e-05
-3.68356e-07
-3.60298e-05
-3.7346e-07
-3.59735e-05
-3.78685e-07
-3.5917e-05
-3.8401e-07
-3.58604e-05
-3.8945e-07
-3.58037e-05
-3.94966e-07
-3.57469e-05
-4.00596e-07
-3.569e-05
-4.06319e-07
-3.56328e-05
-4.11983e-07
-3.55756e-05
-4.17583e-07
-3.55184e-05
-4.23181e-07
-3.54612e-05
-4.28825e-07
-3.5404e-05
-4.34535e-07
-3.53471e-05
-4.40326e-07
-3.52903e-05
-4.46206e-07
-3.52337e-05
-4.5218e-07
-3.51775e-05
-4.5825e-07
-3.51216e-05
-4.64414e-07
-3.50663e-05
-4.70664e-07
-3.50116e-05
-4.77002e-07
-3.49575e-05
-4.83448e-07
-3.49042e-05
-4.8998e-07
-3.48519e-05
-4.96613e-07
-3.48006e-05
-5.0333e-07
-3.47506e-05
-5.10125e-07
-3.47019e-05
-5.17002e-07
-3.46549e-05
-5.23949e-07
-3.46096e-05
-5.30952e-07
-3.45664e-05
-5.38001e-07
-3.45255e-05
-5.45077e-07
-3.44871e-05
-5.5215e-07
-3.44517e-05
-5.59173e-07
-3.44195e-05
-5.66051e-07
-3.43908e-05
-5.7286e-07
-3.43654e-05
-5.79803e-07
-3.43431e-05
-5.8675e-07
-3.4324e-05
-5.93519e-07
-3.43082e-05
-6.00122e-07
-3.4296e-05
-6.06601e-07
-3.42876e-05
-6.12869e-07
-3.42833e-05
-6.18801e-07
-3.42833e-05
-6.24408e-07
-3.42879e-05
-6.2969e-07
-3.42976e-05
-6.3465e-07
-3.43126e-05
-6.39321e-07
-3.43333e-05
-6.4371e-07
-3.43601e-05
-6.47826e-07
-3.43932e-05
-6.51688e-07
-3.44331e-05
-6.55325e-07
-3.448e-05
-6.58778e-07
-3.45342e-05
-6.62117e-07
-3.4596e-05
-6.65436e-07
-3.46656e-05
-6.6885e-07
-3.47432e-05
-6.72531e-07
-3.48288e-05
-6.76673e-07
-3.49224e-05
-6.81538e-07
-3.50238e-05
-6.87456e-07
-3.51328e-05
-6.94822e-07
-3.5249e-05
-7.04138e-07
-3.53716e-05
-7.15985e-07
-3.55001e-05
-7.30948e-07
-3.56335e-05
-7.49914e-07
-3.57707e-05
-7.73888e-07
-3.59105e-05
-8.03772e-07
-3.60519e-05
-8.40539e-07
-3.61937e-05
-8.85086e-07
-3.6335e-05
-9.37991e-07
-3.64751e-05
-9.99109e-07
-3.66138e-05
-1.06677e-06
-3.67518e-05
-1.13654e-06
-3.68904e-05
-1.19965e-06
-3.70318e-05
-1.2405e-06
-3.71779e-05
-1.23316e-06
-3.73279e-05
-1.13764e-06
-3.74814e-05
-8.9188e-07
-3.76361e-05
-4.21902e-07
-3.77994e-05
3.47514e-07
-3.81025e-05
1.61552e-06
-3.86655e-05
3.86365e-06
-3.96604e-05
7.95071e-06
-4.12711e-05
1.58605e-05
3.12606e-05
-4.13359e-05
-3.97033e-05
-9.47208e-08
-3.96898e-05
-1.88738e-07
-3.96751e-05
-2.46566e-07
-3.96585e-05
-2.81946e-07
-3.96403e-05
-3.0431e-07
-3.96214e-05
-3.18939e-07
-3.96022e-05
-3.29018e-07
-3.95831e-05
-3.36434e-07
-3.95642e-05
-3.42283e-07
-3.95456e-05
-3.47232e-07
-3.95276e-05
-3.51653e-07
-3.95101e-05
-3.55782e-07
-3.94933e-05
-3.59745e-07
-3.94772e-05
-3.63627e-07
-3.94619e-05
-3.67471e-07
-3.94474e-05
-3.71305e-07
-3.94339e-05
-3.75143e-07
-3.94214e-05
-3.7899e-07
-3.941e-05
-3.82851e-07
-3.93998e-05
-3.86726e-07
-3.93909e-05
-3.90631e-07
-3.93833e-05
-3.9452e-07
-3.93774e-05
-3.98374e-07
-3.93731e-05
-4.02169e-07
-3.93705e-05
-4.05965e-07
-3.93698e-05
-4.09903e-07
-3.93706e-05
-4.13938e-07
-3.93729e-05
-4.17938e-07
-3.93769e-05
-4.21886e-07
-3.93826e-05
-4.25801e-07
-3.939e-05
-4.29698e-07
-3.93993e-05
-4.33582e-07
-3.94106e-05
-4.37458e-07
-3.94239e-05
-4.41325e-07
-3.94394e-05
-4.45179e-07
-3.94572e-05
-4.49009e-07
-3.94774e-05
-4.52811e-07
-3.95001e-05
-4.56583e-07
-3.95255e-05
-4.60314e-07
-3.95537e-05
-4.64002e-07
-3.95847e-05
-4.6766e-07
-3.96189e-05
-4.71257e-07
-3.96563e-05
-4.7479e-07
-3.9697e-05
-4.78257e-07
-3.97412e-05
-4.81654e-07
-3.97891e-05
-4.84967e-07
-3.98407e-05
-4.8819e-07
-3.98962e-05
-4.91313e-07
-3.99557e-05
-4.9432e-07
-4.00193e-05
-4.97187e-07
-4.00871e-05
-4.9988e-07
-4.0159e-05
-5.02448e-07
-4.02353e-05
-5.04998e-07
-4.0316e-05
-5.07457e-07
-4.04011e-05
-5.09735e-07
-4.04907e-05
-5.11819e-07
-4.05848e-05
-5.13691e-07
-4.06835e-05
-5.15268e-07
-4.0787e-05
-5.16469e-07
-4.08951e-05
-5.17312e-07
-4.10079e-05
-5.17826e-07
-4.11254e-05
-5.18052e-07
-4.12476e-05
-5.1803e-07
-4.13743e-05
-5.17796e-07
-4.15055e-05
-5.17393e-07
-4.1641e-05
-5.16861e-07
-4.17807e-05
-5.16254e-07
-4.19245e-05
-5.15637e-07
-4.2072e-05
-5.15099e-07
-4.22232e-05
-5.1475e-07
-4.23778e-05
-5.14727e-07
-4.25355e-05
-5.15204e-07
-4.26962e-05
-5.1639e-07
-4.28595e-05
-5.18556e-07
-4.30252e-05
-5.22037e-07
-4.31931e-05
-5.27231e-07
-4.33628e-05
-5.3462e-07
-4.35341e-05
-5.44875e-07
-4.37068e-05
-5.58451e-07
-4.38806e-05
-5.7625e-07
-4.40552e-05
-5.99418e-07
-4.42304e-05
-6.28746e-07
-4.44058e-05
-6.65155e-07
-4.45816e-05
-7.09452e-07
-4.47575e-05
-7.62069e-07
-4.4934e-05
-8.22734e-07
-4.51111e-05
-8.89691e-07
-4.52893e-05
-9.58382e-07
-4.54689e-05
-1.02007e-06
-4.56495e-05
-1.05992e-06
-4.58285e-05
-1.05418e-06
-4.59988e-05
-9.67306e-07
-4.61456e-05
-7.45112e-07
-4.62492e-05
-3.18335e-07
-4.63136e-05
4.11896e-07
-4.63766e-05
1.67858e-06
-4.64544e-05
3.94146e-06
-4.65468e-05
8.04304e-06
-4.63294e-05
1.5643e-05
2.84356e-05
-4.35043e-05
-4.25601e-05
-1.00595e-07
-4.2569e-05
-1.83753e-07
-4.25833e-05
-2.36173e-07
-4.26002e-05
-2.68953e-07
-4.26188e-05
-2.89674e-07
-4.26389e-05
-3.02875e-07
-4.26602e-05
-3.1163e-07
-4.2683e-05
-3.17662e-07
-4.27071e-05
-3.22103e-07
-4.27327e-05
-3.25565e-07
-4.27598e-05
-3.28452e-07
-4.27885e-05
-3.30967e-07
-4.28188e-05
-3.33263e-07
-4.28509e-05
-3.354e-07
-4.28848e-05
-3.37438e-07
-4.29205e-05
-3.39387e-07
-4.29582e-05
-3.41273e-07
-4.29979e-05
-3.43086e-07
-4.30397e-05
-3.44839e-07
-4.30837e-05
-3.46523e-07
-4.31299e-05
-3.48176e-07
-4.31784e-05
-3.49752e-07
-4.32294e-05
-3.51155e-07
-4.32828e-05
-3.52477e-07
-4.33386e-05
-3.53823e-07
-4.33969e-05
-3.55214e-07
-4.34579e-05
-3.56626e-07
-4.35215e-05
-3.57974e-07
-4.35877e-05
-3.59239e-07
-4.36567e-05
-3.60427e-07
-4.37284e-05
-3.6155e-07
-4.38029e-05
-3.62615e-07
-4.38803e-05
-3.63633e-07
-4.39605e-05
-3.64604e-07
-4.40437e-05
-3.65532e-07
-4.41297e-05
-3.66408e-07
-4.42187e-05
-3.67239e-07
-4.43107e-05
-3.68031e-07
-4.44056e-05
-3.68778e-07
-4.45035e-05
-3.69467e-07
-4.46044e-05
-3.70132e-07
-4.47082e-05
-3.70762e-07
-4.48149e-05
-3.71356e-07
-4.49245e-05
-3.71923e-07
-4.50369e-05
-3.72466e-07
-4.51521e-05
-3.72982e-07
-4.52699e-05
-3.73472e-07
-4.53904e-05
-3.73937e-07
-4.55134e-05
-3.74372e-07
-4.56388e-05
-3.74759e-07
-4.57665e-05
-3.75094e-07
-4.58964e-05
-3.75402e-07
-4.60285e-05
-3.75749e-07
-4.61626e-05
-3.76089e-07
-4.62987e-05
-3.76408e-07
-4.64364e-05
-3.76713e-07
-4.65757e-05
-3.7695e-07
-4.67165e-05
-3.76996e-07
-4.68586e-05
-3.7677e-07
-4.70019e-05
-3.76283e-07
-4.71464e-05
-3.75572e-07
-4.7292e-05
-3.74679e-07
-4.74385e-05
-3.73629e-07
-4.75858e-05
-3.72446e-07
-4.77339e-05
-3.71174e-07
-4.78828e-05
-3.69823e-07
-4.80324e-05
-3.68438e-07
-4.81826e-05
-3.67078e-07
-4.83334e-05
-3.6581e-07
-4.84849e-05
-3.6473e-07
-4.8637e-05
-3.63966e-07
-4.87898e-05
-3.63671e-07
-4.89434e-05
-3.64038e-07
-4.90977e-05
-3.65331e-07
-4.92529e-05
-3.67889e-07
-4.9409e-05
-3.72107e-07
-4.9566e-05
-3.78455e-07
-4.97241e-05
-3.8759e-07
-4.98833e-05
-4.0001e-07
-5.00438e-05
-4.16397e-07
-5.02061e-05
-4.3776e-07
-5.03704e-05
-4.65042e-07
-5.05368e-05
-4.99184e-07
-5.07057e-05
-5.40948e-07
-5.08775e-05
-5.90694e-07
-5.10524e-05
-6.48138e-07
-5.12307e-05
-7.11732e-07
-5.14121e-05
-7.77208e-07
-5.1596e-05
-8.36402e-07
-5.17798e-05
-8.76196e-07
-5.1958e-05
-8.76156e-07
-5.21189e-05
-8.06473e-07
-5.22386e-05
-6.2548e-07
-5.22892e-05
-2.6784e-07
-5.2253e-05
3.75674e-07
-5.21e-05
1.52561e-06
-5.17499e-05
3.59133e-06
-5.10323e-05
7.32542e-06
-4.93309e-05
1.39416e-05
2.38446e-05
-4.474e-05
-4.55078e-05
-9.11021e-08
-4.55406e-05
-1.5505e-07
-4.55843e-05
-1.96569e-07
-4.56345e-05
-2.22951e-07
-4.56889e-05
-2.39399e-07
-4.57465e-05
-2.4944e-07
-4.58066e-05
-2.55645e-07
-4.5869e-05
-2.59432e-07
-4.59335e-05
-2.61795e-07
-4.59999e-05
-2.63266e-07
-4.60683e-05
-2.64199e-07
-4.61386e-05
-2.64775e-07
-4.62109e-05
-2.65137e-07
-4.62851e-05
-2.65338e-07
-4.63612e-05
-2.65442e-07
-4.64393e-05
-2.65458e-07
-4.65193e-05
-2.65417e-07
-4.66013e-05
-2.65311e-07
-4.66852e-05
-2.65161e-07
-4.6771e-05
-2.64959e-07
-4.68587e-05
-2.64747e-07
-4.69482e-05
-2.64491e-07
-4.70396e-05
-2.64061e-07
-4.7133e-05
-2.63431e-07
-4.72284e-05
-2.62714e-07
-4.7326e-05
-2.61972e-07
-4.74258e-05
-2.61227e-07
-4.75277e-05
-2.60444e-07
-4.76317e-05
-2.59614e-07
-4.77377e-05
-2.58741e-07
-4.78458e-05
-2.57851e-07
-4.79559e-05
-2.56947e-07
-4.80679e-05
-2.56062e-07
-4.81818e-05
-2.55196e-07
-4.82974e-05
-2.54369e-07
-4.84147e-05
-2.53569e-07
-4.85336e-05
-2.52823e-07
-4.86541e-05
-2.5212e-07
-4.87759e-05
-2.51487e-07
-4.8899e-05
-2.50911e-07
-4.90233e-05
-2.50417e-07
-4.91487e-05
-2.5e-07
-4.9275e-05
-2.49667e-07
-4.94022e-05
-2.49419e-07
-4.95301e-05
-2.49263e-07
-4.96586e-05
-2.49192e-07
-4.97877e-05
-2.49202e-07
-4.99171e-05
-2.49282e-07
-5.00468e-05
-2.49445e-07
-5.01767e-05
-2.49649e-07
-5.03068e-05
-2.49906e-07
-5.04368e-05
-2.50201e-07
-5.05669e-05
-2.50579e-07
-5.06969e-05
-2.50991e-07
-5.08267e-05
-2.51433e-07
-5.09564e-05
-2.51957e-07
-5.10858e-05
-2.52478e-07
-5.12148e-05
-2.52809e-07
-5.13437e-05
-2.52819e-07
-5.14723e-05
-2.52527e-07
-5.16008e-05
-2.5197e-07
-5.17291e-05
-2.51183e-07
-5.18573e-05
-2.50177e-07
-5.19856e-05
-2.48954e-07
-5.21139e-05
-2.47545e-07
-5.22424e-05
-2.45954e-07
-5.23712e-05
-2.44204e-07
-5.25004e-05
-2.42338e-07
-5.26303e-05
-2.40412e-07
-5.27608e-05
-2.38511e-07
-5.28922e-05
-2.36745e-07
-5.30248e-05
-2.35256e-07
-5.31586e-05
-2.3423e-07
-5.32939e-05
-2.33905e-07
-5.3431e-05
-2.34627e-07
-5.357e-05
-2.36781e-07
-5.37112e-05
-2.40818e-07
-5.38549e-05
-2.47211e-07
-5.40016e-05
-2.5667e-07
-5.4151e-05
-2.70075e-07
-5.43035e-05
-2.88206e-07
-5.44595e-05
-3.11865e-07
-5.46195e-05
-3.41936e-07
-5.47837e-05
-3.79161e-07
-5.49529e-05
-4.23868e-07
-5.51274e-05
-4.75816e-07
-5.53072e-05
-5.33996e-07
-5.54914e-05
-5.94851e-07
-5.56785e-05
-6.5107e-07
-5.58643e-05
-6.91938e-07
-5.60405e-05
-7.01267e-07
-5.61924e-05
-6.55743e-07
-5.62916e-05
-5.27183e-07
-5.63009e-05
-2.5921e-07
-5.61763e-05
2.50511e-07
-5.58379e-05
1.18674e-06
-5.51235e-05
2.87627e-06
-5.37234e-05
5.9246e-06
-5.09135e-05
1.11307e-05
1.82291e-05
-4.52992e-05
-4.81783e-05
-6.91484e-08
-4.82279e-05
-1.0936e-07
-4.82908e-05
-1.37522e-07
-4.83622e-05
-1.5538e-07
-4.84392e-05
-1.66239e-07
-4.852e-05
-1.72509e-07
-4.86035e-05
-1.75964e-07
-4.86891e-05
-1.77653e-07
-4.87764e-05
-1.78269e-07
-4.88652e-05
-1.78216e-07
-4.89553e-05
-1.77756e-07
-4.90468e-05
-1.77026e-07
-4.91396e-05
-1.76133e-07
-4.92335e-05
-1.75123e-07
-4.93286e-05
-1.74047e-07
-4.94249e-05
-1.72914e-07
-4.95222e-05
-1.7175e-07
-4.96207e-05
-1.7055e-07
-4.97203e-05
-1.69334e-07
-4.98209e-05
-1.68091e-07
-4.99226e-05
-1.66806e-07
-5.00254e-05
-1.65458e-07
-5.01292e-05
-1.64123e-07
-5.02337e-05
-1.62769e-07
-5.03389e-05
-1.61387e-07
-5.04447e-05
-1.60007e-07
-5.05512e-05
-1.58676e-07
-5.06582e-05
-1.57373e-07
-5.07656e-05
-1.56108e-07
-5.08735e-05
-1.5487e-07
-5.09817e-05
-1.53704e-07
-5.10901e-05
-1.52587e-07
-5.11987e-05
-1.51572e-07
-5.13075e-05
-1.50638e-07
-5.14163e-05
-1.49824e-07
-5.1525e-05
-1.49088e-07
-5.16338e-05
-1.4848e-07
-5.17424e-05
-1.47954e-07
-5.18508e-05
-1.47558e-07
-5.19591e-05
-1.47268e-07
-5.20671e-05
-1.47093e-07
-5.21749e-05
-1.47024e-07
-5.22824e-05
-1.47057e-07
-5.23896e-05
-1.47194e-07
-5.24965e-05
-1.47428e-07
-5.26032e-05
-1.47749e-07
-5.27096e-05
-1.48141e-07
-5.28157e-05
-1.48589e-07
-5.29216e-05
-1.49092e-07
-5.30274e-05
-1.49619e-07
-5.3133e-05
-1.50166e-07
-5.32384e-05
-1.50705e-07
-5.33439e-05
-1.51248e-07
-5.34494e-05
-1.51749e-07
-5.35551e-05
-1.52208e-07
-5.36609e-05
-1.5274e-07
-5.37668e-05
-1.53274e-07
-5.3873e-05
-1.53532e-07
-5.39796e-05
-1.53315e-07
-5.40867e-05
-1.52673e-07
-5.41943e-05
-1.51672e-07
-5.43027e-05
-1.50345e-07
-5.44119e-05
-1.48701e-07
-5.4522e-05
-1.46738e-07
-5.46332e-05
-1.44453e-07
-5.47455e-05
-1.41851e-07
-5.48591e-05
-1.38949e-07
-5.49742e-05
-1.35771e-07
-5.50909e-05
-1.32361e-07
-5.52094e-05
-1.2879e-07
-5.53299e-05
-1.25156e-07
-5.54526e-05
-1.21587e-07
-5.55778e-05
-1.1827e-07
-5.57055e-05
-1.15395e-07
-5.58362e-05
-1.13328e-07
-5.597e-05
-1.12434e-07
-5.61073e-05
-1.13131e-07
-5.62482e-05
-1.15859e-07
-5.63932e-05
-1.21335e-07
-5.65425e-05
-1.30492e-07
-5.66963e-05
-1.44162e-07
-5.6855e-05
-1.62975e-07
-5.70191e-05
-1.8771e-07
-5.7189e-05
-2.19121e-07
-5.73651e-05
-2.57585e-07
-5.75479e-05
-3.02846e-07
-5.7737e-05
-3.54723e-07
-5.79306e-05
-4.11002e-07
-5.81263e-05
-4.64991e-07
-5.83186e-05
-5.09047e-07
-5.84973e-05
-5.31647e-07
-5.86448e-05
-5.17052e-07
-5.87332e-05
-4.46901e-07
-5.87143e-05
-2.85584e-07
-5.85194e-05
4.91286e-08
-5.80359e-05
6.97039e-07
-5.70369e-05
1.87022e-06
-5.51155e-05
3.99449e-06
-5.15359e-05
7.53978e-06
1.20544e-05
-4.53749e-05
-5.02074e-05
-3.55564e-08
-5.02643e-05
-5.53043e-08
-5.03347e-05
-6.98023e-08
-5.04139e-05
-7.88695e-08
-5.04985e-05
-8.42074e-08
-5.05864e-05
-8.71582e-08
-5.06763e-05
-8.85903e-08
-5.07673e-05
-8.90883e-08
-5.0859e-05
-8.90137e-08
-5.0951e-05
-8.85636e-08
-5.10432e-05
-8.78976e-08
-5.11355e-05
-8.70808e-08
-5.12277e-05
-8.61793e-08
-5.13198e-05
-8.52192e-08
-5.14118e-05
-8.42303e-08
-5.15036e-05
-8.32183e-08
-5.15952e-05
-8.21988e-08
-5.16867e-05
-8.11702e-08
-5.17779e-05
-8.01427e-08
-5.18689e-05
-7.91094e-08
-5.19596e-05
-7.80401e-08
-5.20501e-05
-7.69428e-08
-5.21402e-05
-7.59597e-08
-5.22297e-05
-7.51157e-08
-5.23187e-05
-7.43458e-08
-5.24071e-05
-7.36193e-08
-5.24949e-05
-7.29515e-08
-5.2582e-05
-7.2324e-08
-5.26685e-05
-7.17402e-08
-5.27544e-05
-7.11916e-08
-5.28396e-05
-7.0709e-08
-5.29243e-05
-7.02753e-08
-5.30083e-05
-6.99231e-08
-5.30918e-05
-6.96374e-08
-5.31748e-05
-6.94421e-08
-5.32572e-05
-6.93057e-08
-5.33392e-05
-6.92528e-08
-5.34208e-05
-6.92413e-08
-5.3502e-05
-6.93255e-08
-5.35829e-05
-6.94522e-08
-5.36635e-05
-6.96515e-08
-5.3744e-05
-6.99018e-08
-5.38243e-05
-7.0187e-08
-5.39045e-05
-7.05218e-08
-5.39847e-05
-7.08871e-08
-5.4065e-05
-7.1271e-08
-5.41454e-05
-7.16589e-08
-5.42261e-05
-7.2049e-08
-5.4307e-05
-7.23975e-08
-5.43883e-05
-7.27057e-08
-5.44701e-05
-7.295e-08
-5.45524e-05
-7.31312e-08
-5.46353e-05
-7.32184e-08
-5.47189e-05
-7.31593e-08
-5.48035e-05
-7.29329e-08
-5.48889e-05
-7.27731e-08
-5.49751e-05
-7.26725e-08
-5.50623e-05
-7.22167e-08
-5.51506e-05
-7.10715e-08
-5.52403e-05
-6.93635e-08
-5.53313e-05
-6.72196e-08
-5.54238e-05
-6.46742e-08
-5.55179e-05
-6.17303e-08
-5.56137e-05
-5.83741e-08
-5.57113e-05
-5.45895e-08
-5.58108e-05
-5.0375e-08
-5.59124e-05
-4.57397e-08
-5.60163e-05
-4.06964e-08
-5.61225e-05
-3.52788e-08
-5.62313e-05
-2.95448e-08
-5.63428e-05
-2.35793e-08
-5.64573e-05
-1.74971e-08
-5.65749e-05
-1.14666e-08
-5.66959e-05
-5.69893e-09
-5.68206e-05
-4.91393e-10
-5.69493e-05
3.88487e-09
-5.70823e-05
6.8693e-09
-5.72198e-05
8.08876e-09
-5.73622e-05
6.85582e-09
-5.75101e-05
2.47148e-09
-5.76637e-05
-5.99494e-09
-5.78238e-05
-1.91211e-08
-5.79909e-05
-3.77032e-08
-5.81654e-05
-6.24646e-08
-5.83479e-05
-9.40192e-08
-5.85387e-05
-1.31899e-07
-5.87378e-05
-1.76738e-07
-5.8942e-05
-2.29136e-07
-5.91491e-05
-2.8165e-07
-5.93528e-05
-3.3066e-07
-5.9542e-05
-3.69449e-07
-5.96977e-05
-3.90046e-07
-5.9792e-05
-3.82939e-07
-5.9775e-05
-3.34527e-07
-5.95613e-05
-1.97898e-07
-5.8999e-05
1.00947e-07
-5.78332e-05
6.68524e-07
-5.55908e-05
1.71018e-06
-5.15465e-05
3.44424e-06
5.57872e-06
-4.51307e-05
-5.11859e-05
3.86328e-09
-5.12423e-05
2.21738e-10
-5.13114e-05
-1.3718e-09
-5.13889e-05
-2.09841e-09
-5.14711e-05
-2.5834e-09
-5.15559e-05
-2.97109e-09
-5.16418e-05
-3.27261e-09
-5.17279e-05
-3.50788e-09
-5.18137e-05
-3.71182e-09
-5.18989e-05
-3.85538e-09
-5.19833e-05
-3.98179e-09
-5.20668e-05
-4.07504e-09
-5.21493e-05
-4.14297e-09
-5.22307e-05
-4.20062e-09
-5.23111e-05
-4.23931e-09
-5.23905e-05
-4.26681e-09
-5.24688e-05
-4.27538e-09
-5.25461e-05
-4.27081e-09
-5.26224e-05
-4.24551e-09
-5.26977e-05
-4.19847e-09
-5.27721e-05
-4.1065e-09
-5.28455e-05
-4.00106e-09
-5.2918e-05
-3.95629e-09
-5.29896e-05
-3.99465e-09
-5.30604e-05
-4.06211e-09
-5.31304e-05
-4.14284e-09
-5.31997e-05
-4.23077e-09
-5.32684e-05
-4.31366e-09
-5.33364e-05
-4.37594e-09
-5.34038e-05
-4.43146e-09
-5.34708e-05
-4.47824e-09
-5.35372e-05
-4.54638e-09
-5.36033e-05
-4.62453e-09
-5.36691e-05
-4.72458e-09
-5.37345e-05
-4.83097e-09
-5.37997e-05
-4.96577e-09
-5.38648e-05
-5.09466e-09
-5.39298e-05
-5.23179e-09
-5.39947e-05
-5.38762e-09
-5.40596e-05
-5.53043e-09
-5.41246e-05
-5.67674e-09
-5.41898e-05
-5.81364e-09
-5.42552e-05
-5.92608e-09
-5.43208e-05
-6.01595e-09
-5.43867e-05
-6.07484e-09
-5.44531e-05
-6.08527e-09
-5.45199e-05
-6.03612e-09
-5.45873e-05
-5.92244e-09
-5.46552e-05
-5.69995e-09
-5.47239e-05
-5.3703e-09
-5.47932e-05
-4.91051e-09
-5.48634e-05
-4.31695e-09
-5.49344e-05
-3.54757e-09
-5.50065e-05
-2.56266e-09
-5.50796e-05
-1.23192e-09
-5.51539e-05
3.50512e-11
-5.52292e-05
1.09392e-09
-5.53055e-05
2.50522e-09
-5.53832e-05
4.94503e-09
-5.54624e-05
8.07947e-09
-5.55431e-05
1.16936e-08
-5.56255e-05
1.57614e-08
-5.57096e-05
2.03028e-08
-5.57954e-05
2.53492e-08
-5.58833e-05
3.09171e-08
-5.59731e-05
3.70183e-08
-5.60651e-05
4.36568e-08
-5.61595e-05
5.08293e-08
-5.62563e-05
5.85118e-08
-5.63558e-05
6.66594e-08
-5.64581e-05
7.5203e-08
-5.65635e-05
8.40438e-08
-5.66722e-05
9.30386e-08
-5.67843e-05
1.0195e-07
-5.69003e-05
1.10597e-07
-5.70204e-05
1.18712e-07
-5.7145e-05
1.25791e-07
-5.72744e-05
1.31399e-07
-5.7409e-05
1.34882e-07
-5.75491e-05
1.35575e-07
-5.76956e-05
1.32822e-07
-5.78488e-05
1.25933e-07
-5.80092e-05
1.14109e-07
-5.81774e-05
9.66189e-08
-5.8354e-05
7.28819e-08
-5.85381e-05
4.21751e-08
-5.87312e-05
5.90682e-09
-5.89284e-05
-4.31594e-08
-5.91286e-05
-9.39148e-08
-5.93251e-05
-1.48435e-07
-5.95064e-05
-2.04541e-07
-5.96547e-05
-2.60986e-07
-5.97405e-05
-3.19757e-07
-5.97186e-05
-3.83613e-07
-5.94989e-05
-4.50666e-07
-5.89204e-05
-5.18076e-07
-5.7703e-05
-5.95601e-07
-5.53469e-05
-6.96575e-07
-5.11205e-05
-8.34269e-07
-9.59749e-07
-4.46288e-05
-5.07561e-05
4.18979e-08
-5.08108e-05
5.61536e-08
-5.08793e-05
6.8273e-08
-5.09563e-05
7.60345e-08
-5.10384e-05
8.05538e-08
-5.11232e-05
8.28934e-08
-5.12094e-05
8.38913e-08
-5.12961e-05
8.40748e-08
-5.13827e-05
8.37668e-08
-5.14688e-05
8.31724e-08
-5.15544e-05
8.24075e-08
-5.16392e-05
8.15345e-08
-5.17232e-05
8.06208e-08
-5.18063e-05
7.96627e-08
-5.18885e-05
7.87041e-08
-5.19698e-05
7.77389e-08
-5.20502e-05
7.67948e-08
-5.21297e-05
7.58637e-08
-5.22082e-05
7.49676e-08
-5.22858e-05
7.41019e-08
-5.23625e-05
7.32883e-08
-5.24383e-05
7.24927e-08
-5.25133e-05
7.16854e-08
-5.25874e-05
7.0844e-08
-5.26607e-05
7.00112e-08
-5.27333e-05
6.91892e-08
-5.28051e-05
6.83962e-08
-5.28763e-05
6.76449e-08
-5.29468e-05
6.69668e-08
-5.30166e-05
6.63376e-08
-5.30859e-05
6.57697e-08
-5.31547e-05
6.52174e-08
-5.3223e-05
6.47112e-08
-5.32909e-05
6.4227e-08
-5.33584e-05
6.37951e-08
-5.34255e-05
6.33813e-08
-5.34924e-05
6.30334e-08
-5.3559e-05
6.27072e-08
-5.36255e-05
6.24622e-08
-5.36918e-05
6.22519e-08
-5.37581e-05
6.21194e-08
-5.38244e-05
6.20547e-08
-5.38907e-05
6.20568e-08
-5.39572e-05
6.21567e-08
-5.40238e-05
6.23526e-08
-5.40907e-05
6.26613e-08
-5.41579e-05
6.3095e-08
-5.42255e-05
6.36679e-08
-5.42935e-05
6.44062e-08
-5.4362e-05
6.53228e-08
-5.4431e-05
6.64314e-08
-5.45008e-05
6.77504e-08
-5.45712e-05
6.93088e-08
-5.46423e-05
7.1148e-08
-5.47142e-05
7.32854e-08
-5.47869e-05
7.54988e-08
-5.48608e-05
7.78195e-08
-5.49359e-05
8.06659e-08
-5.50122e-05
8.43645e-08
-5.50896e-05
8.87685e-08
-5.51683e-05
9.37684e-08
-5.52483e-05
9.93401e-08
-5.53297e-05
1.05498e-07
-5.54127e-05
1.12274e-07
-5.54973e-05
1.19688e-07
-5.55837e-05
1.27757e-07
-5.5672e-05
1.36499e-07
-5.57622e-05
1.4593e-07
-5.58546e-05
1.56036e-07
-5.59493e-05
1.66783e-07
-5.60464e-05
1.78129e-07
-5.61462e-05
1.89994e-07
-5.62489e-05
2.02254e-07
-5.63548e-05
2.14728e-07
-5.6464e-05
2.27233e-07
-5.65768e-05
2.395e-07
-5.66935e-05
2.51126e-07
-5.68146e-05
2.61669e-07
-5.69404e-05
2.70564e-07
-5.70713e-05
2.7721e-07
-5.72078e-05
2.80983e-07
-5.73504e-05
2.81183e-07
-5.74997e-05
2.77001e-07
-5.76559e-05
2.6772e-07
-5.78194e-05
2.52581e-07
-5.79901e-05
2.30464e-07
-5.81654e-05
2.00442e-07
-5.83474e-05
1.60134e-07
-5.85287e-05
1.11461e-07
-5.87013e-05
5.14639e-08
-5.88545e-05
-2.03913e-08
-5.89722e-05
-1.08429e-07
-5.90257e-05
-2.27495e-07
-5.89672e-05
-3.98842e-07
-5.87127e-05
-6.56876e-07
-5.81068e-05
-1.07011e-06
-5.68709e-05
-1.7718e-06
-5.45174e-05
-2.98436e-06
-5.03436e-05
-4.9374e-06
-7.27579e-06
-4.39583e-05
-4.91647e-05
7.10409e-08
-4.92163e-05
1.10537e-07
-4.92821e-05
1.36895e-07
-4.93571e-05
1.53811e-07
-4.9438e-05
1.64075e-07
-4.95224e-05
1.69977e-07
-4.96091e-05
1.73244e-07
-4.96972e-05
1.74849e-07
-4.97864e-05
1.75506e-07
-4.98762e-05
1.75525e-07
-4.99664e-05
1.75213e-07
-5.0057e-05
1.74639e-07
-5.01478e-05
1.73936e-07
-5.02387e-05
1.73127e-07
-5.03298e-05
1.72261e-07
-5.04209e-05
1.71344e-07
-5.0512e-05
1.70406e-07
-5.06031e-05
1.69443e-07
-5.06941e-05
1.68476e-07
-5.0785e-05
1.675e-07
-5.08757e-05
1.66531e-07
-5.09663e-05
1.65541e-07
-5.10565e-05
1.64519e-07
-5.11466e-05
1.63444e-07
-5.12363e-05
1.62348e-07
-5.13258e-05
1.61227e-07
-5.14148e-05
1.60103e-07
-5.15035e-05
1.58998e-07
-5.15918e-05
1.57952e-07
-5.16796e-05
1.5695e-07
-5.1767e-05
1.55985e-07
-5.18539e-05
1.55032e-07
-5.19403e-05
1.5411e-07
-5.20263e-05
1.53214e-07
-5.21118e-05
1.52366e-07
-5.21968e-05
1.51555e-07
-5.22813e-05
1.50805e-07
-5.23654e-05
1.50097e-07
-5.2449e-05
1.49492e-07