/*--------------------------------*- C++ -*----------------------------------*\
| =========                 |                                                 |
| \\      /  F ield         | OpenFOAM: The Open Source CFD Toolbox           |
|  \\    /   O peration     | Version:  2.1.0                                 |
|   \\  /    A nd           | Web:      www.OpenFOAM.org                      |
|    \\/     M anipulation  |                                                 |
\*---------------------------------------------------------------------------*/
FoamFile
{
    version     2.0;
    format      ascii;
    class       volScalarField;
    location    "0.46";
    object      rho;
}
// * * * * * * * * * * * * * * * * * * * * * * * * * * * * * * * * * * * * * //

dimensions      [1 -3 0 0 0 0 0];

internalField   nonuniform List<scalar> 
6400
(
946.384
946.328
946.273
946.218
946.165
946.114
946.063
946.014
945.967
945.92
945.875
945.831
945.789
945.748
945.708
945.669
945.631
945.595
945.56
945.526
945.493
945.461
945.43
945.401
945.373
945.345
945.319
945.294
945.27
945.247
945.225
945.204
945.183
945.164
945.146
945.128
945.112
945.096
945.082
945.068
945.054
945.042
945.03
945.019
945.009
945
944.991
944.983
944.975
944.968
944.962
944.956
944.951
944.946
944.942
944.938
944.935
944.932
944.93
944.928
944.926
944.925
944.924
944.924
944.924
944.924
944.925
944.926
944.928
944.93
944.932
944.935
944.938
944.942
944.946
944.952
944.957
944.964
944.971
944.979
944.988
944.999
945.012
945.026
945.044
945.065
945.092
945.127
945.176
945.246
945.356
945.546
945.91
946.646
947.629
945.701
944.591
944.555
944.555
944.555
946.695
946.633
946.57
946.508
946.446
946.386
946.327
946.269
946.212
946.157
946.102
946.049
945.997
945.946
945.897
945.849
945.801
945.756
945.711
945.667
945.625
945.584
945.544
945.505
945.468
945.431
945.396
945.362
945.33
945.298
945.268
945.238
945.21
945.183
945.158
945.133
945.109
945.087
945.065
945.045
945.026
945.007
944.99
944.973
944.958
944.943
944.929
944.916
944.904
944.893
944.882
944.873
944.863
944.855
944.847
944.84
944.833
944.827
944.821
944.816
944.811
944.807
944.803
944.799
944.796
944.793
944.79
944.788
944.785
944.783
944.781
944.78
944.778
944.776
944.775
944.774
944.773
944.772
944.771
944.771
944.77
944.77
944.77
944.77
944.771
944.772
944.773
944.774
944.776
944.777
944.777
944.773
944.761
944.733
944.678
944.602
944.558
944.555
944.555
944.555
947.158
947.09
947.018
946.946
946.875
946.805
946.735
946.667
946.6
946.533
946.468
946.404
946.341
946.28
946.219
946.16
946.102
946.045
945.989
945.934
945.881
945.829
945.778
945.728
945.68
945.632
945.586
945.541
945.498
945.456
945.415
945.375
945.337
945.3
945.264
945.23
945.197
945.165
945.135
945.106
945.078
945.051
945.026
945.001
944.978
944.956
944.936
944.916
944.897
944.88
944.863
944.848
944.833
944.82
944.807
944.795
944.784
944.773
944.763
944.754
944.746
944.738
944.73
944.723
944.717
944.71
944.704
944.699
944.693
944.688
944.683
944.678
944.674
944.669
944.664
944.659
944.654
944.65
944.645
944.64
944.634
944.629
944.624
944.618
944.613
944.607
944.601
944.596
944.59
944.584
944.578
944.573
944.568
944.563
944.559
944.557
944.555
944.555
944.555
944.555
947.87
947.793
947.712
947.629
947.547
947.464
947.382
947.301
947.221
947.142
947.063
946.986
946.91
946.834
946.76
946.687
946.615
946.544
946.474
946.405
946.338
946.271
946.206
946.142
946.079
946.018
945.957
945.898
945.84
945.784
945.728
945.674
945.622
945.571
945.521
945.473
945.426
945.38
945.336
945.294
945.252
945.213
945.174
945.138
945.102
945.069
945.036
945.005
944.976
944.948
944.921
944.896
944.872
944.849
944.827
944.807
944.788
944.77
944.754
944.738
944.723
944.71
944.697
944.685
944.674
944.663
944.654
944.645
944.637
944.629
944.622
944.615
944.609
944.603
944.598
944.593
944.588
944.584
944.58
944.576
944.573
944.57
944.568
944.565
944.563
944.561
944.56
944.559
944.558
944.557
944.556
944.556
944.555
944.555
944.555
944.555
944.555
944.555
944.555
944.555
948.95
948.865
948.775
948.681
948.587
948.493
948.398
948.304
948.21
948.117
948.025
947.933
947.842
947.752
947.663
947.574
947.487
947.4
947.314
947.229
947.145
947.062
946.98
946.899
946.819
946.74
946.662
946.585
946.509
946.435
946.361
946.289
946.217
946.147
946.079
946.011
945.945
945.88
945.816
945.754
945.694
945.635
945.577
945.521
945.466
945.413
945.362
945.312
945.264
945.218
945.173
945.13
945.089
945.05
945.013
944.977
944.943
944.911
944.88
944.851
944.824
944.799
944.775
944.753
944.733
944.714
944.696
944.68
944.666
944.652
944.64
944.629
944.619
944.61
944.602
944.595
944.589
944.583
944.578
944.574
944.571
944.568
944.565
944.563
944.561
944.559
944.558
944.557
944.556
944.556
944.555
944.555
944.555
944.555
944.555
944.555
944.555
944.555
944.555
944.555
950.626
950.534
950.436
950.334
950.232
950.128
950.024
949.92
949.816
949.712
949.609
949.506
949.403
949.301
949.199
949.097
948.996
948.895
948.795
948.695
948.595
948.496
948.397
948.299
948.201
948.104
948.008
947.912
947.817
947.722
947.628
947.535
947.442
947.35
947.259
947.168
947.079
946.99
946.902
946.814
946.728
946.643
946.559
946.476
946.394
946.313
946.234
946.156
946.079
946.004
945.93
945.858
945.787
945.718
945.651
945.586
945.523
945.462
945.403
945.346
945.291
945.238
945.187
945.139
945.093
945.049
945.008
944.969
944.931
944.897
944.864
944.834
944.805
944.779
944.754
944.731
944.711
944.691
944.674
944.658
944.643
944.63
944.618
944.608
944.598
944.59
944.582
944.576
944.57
944.565
944.562
944.559
944.557
944.556
944.555
944.555
944.555
944.555
944.555
944.555
953.233
953.138
953.039
952.936
952.831
952.726
952.62
952.514
952.407
952.301
952.195
952.089
951.983
951.877
951.771
951.665
951.559
951.453
951.346
951.239
951.132
951.025
950.917
950.808
950.7
950.592
950.484
950.376
950.268
950.16
950.052
949.944
949.836
949.728
949.62
949.512
949.404
949.296
949.188
949.079
948.971
948.862
948.754
948.645
948.536
948.427
948.318
948.209
948.1
947.991
947.882
947.773
947.664
947.555
947.446
947.338
947.231
947.123
947.017
946.911
946.806
946.702
946.6
946.499
946.399
946.301
946.205
946.111
946.018
945.928
945.841
945.756
945.673
945.593
945.515
945.44
945.368
945.299
945.232
945.168
945.107
945.048
944.993
944.94
944.889
944.842
944.797
944.755
944.716
944.68
944.649
944.622
944.601
944.585
944.575
944.569
944.565
944.562
944.56
944.558
957.07
956.983
956.891
956.797
956.703
956.607
956.512
956.416
956.322
956.227
956.132
956.038
955.945
955.851
955.758
955.664
955.572
955.479
955.386
955.293
955.2
955.106
955.013
954.919
954.825
954.731
954.637
954.542
954.447
954.352
954.256
954.16
954.063
953.965
953.866
953.767
953.666
953.565
953.462
953.358
953.253
953.146
953.037
952.927
952.816
952.702
952.586
952.469
952.349
952.228
952.104
951.978
951.849
951.718
951.585
951.449
951.311
951.17
951.027
950.881
950.733
950.583
950.43
950.275
950.117
949.958
949.796
949.633
949.468
949.301
949.133
948.963
948.792
948.621
948.448
948.274
948.1
947.925
947.749
947.572
947.395
947.216
947.036
946.854
946.67
946.485
946.299
946.111
945.923
945.737
945.556
945.382
945.222
945.079
944.961
944.874
944.804
944.747
944.705
944.677
962.518
962.455
962.391
962.325
962.26
962.195
962.131
962.067
962.004
961.942
961.881
961.821
961.762
961.703
961.646
961.589
961.534
961.478
961.424
961.371
961.318
961.266
961.215
961.164
961.113
961.061
961.008
960.955
960.902
960.847
960.791
960.734
960.676
960.616
960.556
960.493
960.429
960.363
960.296
960.226
960.155
960.081
960.006
959.928
959.848
959.766
959.681
959.594
959.504
959.412
959.317
959.219
959.118
959.014
958.907
958.797
958.683
958.566
958.445
958.321
958.192
958.06
957.923
957.782
957.636
957.486
957.331
957.17
957.005
956.834
956.657
956.474
956.285
956.089
955.886
955.676
955.456
955.228
954.989
954.74
954.479
954.207
953.919
953.614
953.291
952.946
952.578
952.182
951.758
951.302
950.817
950.302
949.764
949.208
948.645
948.103
947.627
947.192
946.82
946.545
969.78
969.761
969.742
969.723
969.705
969.686
969.669
969.652
969.635
969.619
969.603
969.588
969.573
969.558
969.543
969.529
969.515
969.501
969.487
969.473
969.459
969.444
969.429
969.414
969.399
969.383
969.367
969.349
969.332
969.314
969.295
969.276
969.256
969.235
969.214
969.193
969.17
969.148
969.124
969.1
969.075
969.05
969.025
968.999
968.972
968.945
968.917
968.889
968.86
968.831
968.801
968.77
968.74
968.708
968.676
968.644
968.611
968.577
968.542
968.507
968.471
968.433
968.395
968.355
968.313
968.271
968.226
968.18
968.131
968.08
968.027
967.97
967.91
967.847
967.779
967.706
967.628
967.546
967.456
967.359
967.253
967.137
967.009
966.87
966.718
966.55
966.367
966.165
965.931
965.658
965.338
964.965
964.529
964.02
963.422
962.717
961.904
961.058
960.244
959.579
977.574
977.602
977.629
977.656
977.681
977.706
977.73
977.753
977.776
977.798
977.819
977.839
977.859
977.879
977.897
977.916
977.934
977.952
977.969
977.987
978.004
978.022
978.039
978.057
978.075
978.094
978.113
978.132
978.152
978.173
978.194
978.216
978.239
978.263
978.288
978.313
978.34
978.368
978.397
978.427
978.458
978.49
978.524
978.558
978.595
978.632
978.671
978.711
978.753
978.796
978.841
978.888
978.936
978.986
979.038
979.093
979.149
979.208
979.27
979.335
979.403
979.474
979.55
979.63
979.714
979.803
979.898
979.999
980.106
980.22
980.341
980.471
980.609
980.756
980.914
981.083
981.264
981.457
981.664
981.886
982.122
982.374
982.642
982.927
983.229
983.548
983.884
984.238
984.621
985.04
985.501
986.006
986.552
987.142
987.78
988.466
989.196
989.955
990.703
991.364
983.946
984.012
984.078
984.146
984.213
984.281
984.347
984.414
984.48
984.546
984.61
984.675
984.739
984.803
984.867
984.93
984.993
985.056
985.118
985.181
985.243
985.306
985.368
985.431
985.494
985.558
985.622
985.687
985.752
985.818
985.885
985.953
986.022
986.092
986.163
986.235
986.309
986.384
986.46
986.539
986.619
986.701
986.785
986.871
986.959
987.05
987.143
987.238
987.336
987.437
987.54
987.647
987.756
987.869
987.985
988.105
988.228
988.354
988.485
988.621
988.761
988.906
989.057
989.214
989.376
989.545
989.721
989.904
990.095
990.294
990.501
990.718
990.943
991.179
991.424
991.68
991.947
992.224
992.512
992.81
993.118
993.437
993.764
994.099
994.441
994.788
995.139
995.491
995.842
996.19
996.53
996.863
997.197
997.525
997.842
998.144
998.425
998.678
998.89
999.049
988.745
988.828
988.915
989.005
989.095
989.187
989.278
989.37
989.461
989.553
989.645
989.737
989.829
989.92
990.012
990.104
990.196
990.288
990.38
990.472
990.565
990.658
990.751
990.845
990.938
991.033
991.128
991.223
991.319
991.416
991.513
991.611
991.71
991.81
991.911
992.013
992.115
992.219
992.325
992.431
992.539
992.648
992.758
992.87
992.984
993.099
993.215
993.334
993.454
993.575
993.699
993.825
993.952
994.081
994.213
994.347
994.482
994.62
994.761
994.903
995.048
995.195
995.344
995.495
995.649
995.805
995.963
996.123
996.285
996.449
996.614
996.781
996.949
997.118
997.288
997.458
997.628
997.797
997.965
998.131
998.294
998.453
998.608
998.758
998.902
999.039
999.167
999.287
999.397
999.497
999.585
999.66
999.723
999.778
999.824
999.864
999.896
999.922
999.94
999.953
992.25
992.335
992.426
992.52
992.615
992.712
992.809
992.907
993.005
993.103
993.201
993.299
993.397
993.495
993.593
993.692
993.79
993.888
993.987
994.085
994.184
994.283
994.382
994.482
994.581
994.681
994.781
994.882
994.983
995.083
995.185
995.286
995.388
995.49
995.592
995.694
995.797
995.9
996.003
996.106
996.209
996.312
996.416
996.519
996.622
996.725
996.828
996.93
997.033
997.135
997.237
997.338
997.439
997.539
997.639
997.738
997.836
997.934
998.031
998.126
998.221
998.314
998.406
998.496
998.585
998.672
998.758
998.841
998.923
999.002
999.079
999.153
999.225
999.295
999.361
999.425
999.486
999.543
999.598
999.649
999.696
999.74
999.78
999.817
999.85
999.879
999.904
999.925
999.943
999.958
999.97
999.979
999.985
999.989
999.992
999.995
999.996
999.997
999.998
999.999
994.634
994.714
994.8
994.89
994.981
995.073
995.165
995.258
995.351
995.444
995.536
995.629
995.721
995.813
995.905
995.996
996.087
996.178
996.269
996.359
996.45
996.54
996.629
996.718
996.807
996.896
996.984
997.072
997.159
997.246
997.332
997.417
997.502
997.587
997.671
997.754
997.836
997.917
997.998
998.077
998.156
998.233
998.309
998.384
998.458
998.53
998.601
998.671
998.739
998.806
998.871
998.934
998.996
999.056
999.114
999.17
999.224
999.277
999.327
999.376
999.422
999.467
999.509
999.55
999.588
999.625
999.659
999.692
999.723
999.751
999.778
999.803
999.826
999.848
999.868
999.886
999.902
999.917
999.93
999.942
999.953
999.962
999.97
999.976
999.982
999.987
999.99
999.993
999.995
999.997
999.998
999.999
999.999
1000
1000
1000
1000
1000
1000
1000
996.212
996.283
996.361
996.441
996.522
996.604
996.686
996.768
996.85
996.931
997.012
997.092
997.172
997.252
997.33
997.409
997.486
997.563
997.639
997.715
997.79
997.864
997.937
998.009
998.081
998.152
998.221
998.29
998.357
998.424
998.489
998.554
998.617
998.679
998.74
998.8
998.859
998.916
998.971
999.026
999.079
999.13
999.18
999.229
999.275
999.321
999.364
999.407
999.447
999.486
999.523
999.558
999.592
999.624
999.655
999.684
999.711
999.737
999.761
999.784
999.805
999.824
999.843
999.86
999.875
999.89
999.903
999.915
999.926
999.936
999.944
999.952
999.96
999.966
999.972
999.976
999.981
999.984
999.988
999.99
999.992
999.994
999.996
999.997
999.998
999.998
999.999
999.999
1000
1000
1000
1000
1000
1000
1000
1000
1000
1000
1000
1000
997.284
997.346
997.413
997.481
997.55
997.619
997.688
997.757
997.825
997.892
997.958
998.024
998.089
998.154
998.217
998.28
998.342
998.403
998.463
998.523
998.581
998.638
998.695
998.75
998.805
998.858
998.91
998.961
999.011
999.06
999.108
999.154
999.199
999.243
999.286
999.327
999.367
999.405
999.443
999.478
999.513
999.546
999.578
999.608
999.637
999.664
999.69
999.715
999.739
999.761
999.782
999.801
999.82
999.837
999.853
999.868
999.881
999.894
999.906
999.916
999.926
999.935
999.943
999.951
999.957
999.963
999.968
999.973
999.977
999.981
999.984
999.987
999.989
999.991
999.993
999.994
999.996
999.997
999.997
999.998
999.999
999.999
999.999
1000
1000
1000
1000
1000
1000
1000
1000
1000
1000
1000
1000
1000
1000
1000
1000
1000
998.047
998.099
998.155
998.211
998.267
998.323
998.378
998.433
998.487
998.54
998.593
998.644
998.695
998.746
998.795
998.843
998.891
998.937
998.983
999.028
999.072
999.115
999.156
999.197
999.237
999.276
999.314
999.351
999.387
999.421
999.455
999.487
999.519
999.549
999.578
999.606
999.632
999.658
999.682
999.705
999.728
999.749
999.768
999.787
999.805
999.822
999.838
999.852
999.866
999.879
999.891
999.902
999.912
999.922
999.93
999.938
999.945
999.952
999.958
999.963
999.968
999.973
999.977
999.98
999.983
999.986
999.988
999.99
999.992
999.993
999.994
999.996
999.996
999.997
999.998
999.998
999.999
999.999
999.999
999.999
1000
1000
1000
1000
1000
1000
1000
1000
1000
1000
1000
1000
1000
1000
1000
1000
1000
1000
1000
1000
998.608
998.65
998.695
998.739
998.784
998.827
998.87
998.913
998.955
998.996
999.036
999.075
999.114
999.152
999.189
999.225
999.261
999.295
999.329
999.362
999.394
999.425
999.455
999.485
999.513
999.541
999.567
999.593
999.618
999.641
999.664
999.686
999.707
999.727
999.746
999.765
999.782
999.798
999.814
999.829
999.843
999.856
999.868
999.88
999.891
999.901
999.91
999.919
999.927
999.935
999.942
999.948
999.954
999.959
999.964
999.969
999.973
999.976
999.979
999.982
999.985
999.987
999.989
999.991
999.992
999.994
999.995
999.996
999.996
999.997
999.998
999.998
999.999
999.999
999.999
999.999
1000
1000
1000
1000
1000
1000
1000
1000
1000
1000
1000
1000
1000
1000
1000
1000
1000
1000
1000
1000
1000
1000
1000
1000
999.107
999.139
999.171
999.203
999.235
999.266
999.296
999.326
999.355
999.384
999.412
999.439
999.465
999.491
999.516
999.54
999.563
999.586
999.608
999.63
999.65
999.67
999.69
999.708
999.726
999.743
999.759
999.775
999.79
999.804
999.818
999.831
999.843
999.855
999.866
999.876
999.886
999.896
999.904
999.912
999.92
999.927
999.934
999.94
999.946
999.951
999.956
999.961
999.965
999.969
999.972
999.976
999.979
999.981
999.984
999.986
999.988
999.989
999.991
999.992
999.993
999.994
999.995
999.996
999.997
999.997
999.998
999.998
999.999
999.999
999.999
999.999
999.999
1000
1000
1000
1000
1000
1000
1000
1000
1000
1000
1000
1000
1000
1000
1000
1000
1000
1000
1000
1000
1000
1000
1000
1000
1000
1000
1000
944.555
944.555
944.555
944.555
944.555
944.555
944.555
944.555
944.555
944.555
944.555
944.555
944.555
944.555
944.555
944.555
944.555
944.555
944.555
944.555
944.555
944.555
944.555
944.555
944.555
944.555
944.555
944.555
944.555
944.555
944.555
944.555
944.555
944.555
944.555
944.555
944.555
944.555
944.555
944.555
944.555
944.555
944.555
944.555
944.555
944.555
944.555
944.555
944.555
944.555
944.555
944.555
944.555
944.555
944.555
944.555
944.555
944.555
944.555
944.555
944.555
944.555
944.555
944.555
944.555
944.555
944.555
944.555
944.555
944.555
944.555
944.555
944.555
944.555
944.555
944.555
944.555
944.555
944.556
944.558
944.555
944.555
944.555
944.555
944.555
944.555
944.555
944.555
944.555
944.555
944.555
944.555
944.555
944.555
944.555
944.556
944.557
944.56
944.569
944.607
944.555
944.555
944.555
944.555
944.555
944.555
944.555
944.555
944.556
944.556
944.556
944.557
944.557
944.559
944.561
944.567
944.579
944.609
944.707
945.191
944.558
944.559
944.56
944.562
944.563
944.565
944.567
944.569
944.57
944.571
944.572
944.574
944.579
944.587
944.603
944.637
944.714
944.919
945.639
949.696
944.677
944.691
944.706
944.722
944.739
944.752
944.76
944.76
944.755
944.749
944.745
944.745
944.753
944.779
944.84
944.976
945.286
946.098
948.894
965.55
946.481
946.565
946.644
946.719
946.774
946.776
946.741
946.669
946.596
946.513
946.429
946.34
946.262
946.212
946.292
946.61
947.439
949.383
954.418
983.829
959.349
959.521
959.685
959.825
959.909
959.858
959.759
959.65
959.51
959.305
959.057
958.71
958.322
957.797
957.421
957.402
958.475
961.291
967.878
984.058
991.665
991.567
991.495
991.446
991.456
991.617
991.826
992.042
992.269
992.535
992.823
993.178
993.568
994.068
994.404
994.484
994.032
993.281
992.748
992.064
999.094
999.054
999.018
998.986
998.965
998.975
999.005
999.061
999.116
999.178
999.24
999.312
999.38
999.457
999.507
999.524
999.481
999.391
999.216
996.255
999.954
999.948
999.943
999.936
999.93
999.925
999.922
999.924
999.929
999.935
999.942
999.948
999.954
999.959
999.962
999.962
999.955
999.933
999.824
998.619
999.999
999.999
999.998
999.998
999.997
999.997
999.996
999.996
999.996
999.996
999.997
999.997
999.997
999.997
999.997
999.997
999.996
999.991
999.97
999.775
1000
1000
1000
1000
1000
1000
1000
1000
1000
1000
1000
1000
1000
1000
1000
1000
1000
999.999
999.999
999.996
1000
1000
1000
1000
1000
1000
1000
1000
1000
1000
1000
1000
1000
1000
1000
1000
1000
1000
1000
1000
1000
1000
1000
1000
1000
1000
1000
1000
1000
1000
1000
1000
1000
1000
1000
1000
1000
1000
1000
1000
1000
1000
1000
1000
1000
1000
1000
1000
1000
1000
1000
1000
1000
1000
1000
1000
1000
1000
1000
1000
1000
1000
1000
1000
1000
1000
1000
1000
1000
1000
1000
1000
1000
1000
1000
1000
1000
1000
1000
1000
1000
1000
1000
1000
1000
1000
1000
1000
1000
1000
1000
1000
1000
1000
1000
1000
1000
1000
1000
1000
944.555
944.555
944.555
944.555
944.555
944.555
944.555
944.555
944.555
944.555
944.555
944.555
944.555
944.555
944.555
944.555
944.555
944.555
944.555
944.555
944.555
944.555
944.555
944.555
944.555
944.555
944.555
944.555
944.555
944.555
944.555
944.555
944.555
944.555
944.555
944.555
944.555
944.555
944.555
944.555
944.555
944.555
944.555
944.555
944.555
944.555
944.555
944.555
944.555
944.555
944.555
944.555
944.555
944.555
944.555
944.555
944.555
944.555
944.555
944.555
944.555
944.555
944.555
944.555
944.555
944.555
944.555
944.555
944.555
944.555
944.555
944.555
944.555
944.555
944.555
944.555
944.555
944.555
944.555
944.555
944.555
944.555
944.555
944.555
944.555
944.555
944.555
944.555
944.555
944.555
944.555
944.555
944.555
944.555
944.555
944.555
944.555
944.555
944.555
944.555
944.555
944.555
944.555
944.555
944.555
944.555
944.555
944.555
944.555
944.555
944.555
944.555
944.555
944.555
944.555
944.555
944.555
944.555
944.555
944.555
944.555
944.555
944.555
944.555
944.555
944.555
944.555
944.555
944.555
944.555
944.555
944.555
944.555
944.555
944.555
944.555
944.555
944.555
944.555
944.555
944.555
944.555
944.555
944.555
944.555
944.555
944.555
944.555
944.555
944.555
944.555
944.555
944.555
944.555
944.555
944.555
944.555
944.555
944.555
944.555
944.555
944.555
944.555
944.555
944.555
944.555
944.555
944.555
944.555
944.555
944.555
944.555
944.555
944.555
944.555
944.555
944.555
944.555
944.555
944.555
944.555
944.555
944.555
944.555
944.555
944.555
944.555
944.555
944.555
944.555
944.555
944.555
944.555
944.555
944.555
944.555
944.555
944.555
944.555
944.555
944.555
944.555
944.555
944.555
944.555
944.555
944.555
944.555
944.555
944.555
944.555
944.555
944.555
944.555
944.555
944.555
944.555
944.555
944.555
944.555
944.555
944.555
944.555
944.555
944.555
944.555
944.555
944.555
944.555
944.555
944.555
944.555
944.555
944.555
944.555
944.555
944.555
944.555
944.555
944.555
944.555
944.555
944.555
944.555
944.555
944.555
944.555
944.555
944.555
944.555
944.555
944.555
944.555
944.555
944.555
944.555
944.555
944.555
944.555
944.555
944.555
944.555
944.555
944.555
944.555
944.555
944.555
944.555
944.555
944.555
944.555
944.555
944.555
944.555
944.555
944.555
944.555
944.555
944.555
944.555
944.555
944.555
944.555
944.555
944.555
944.555
944.555
944.555
944.555
944.555
944.555
944.555
944.555
944.555
944.555
944.555
944.555
944.555
944.555
944.555
944.555
944.555
944.555
944.555
944.555
944.555
944.555
944.555
944.555
944.555
944.555
944.555
944.555
944.555
944.555
944.555
944.555
944.555
944.555
944.555
944.555
944.555
944.555
944.555
944.555
944.555
944.555
944.555
944.555
944.555
944.555
944.555
944.555
944.555
944.555
944.555
944.555
944.555
944.555
944.555
944.555
944.555
944.555
944.555
944.555
944.555
944.555
944.555
944.555
944.555
944.555
944.555
944.555
944.555
944.555
944.555
944.555
944.555
944.555
944.555
944.555
944.555
944.555
944.555
944.555
944.555
944.555
944.555
944.555
944.555
944.555
944.555
944.555
944.555
944.555
944.555
944.555
944.555
944.555
944.555
944.555
944.555
944.555
944.555
944.555
944.555
944.555
944.555
944.555
944.555
944.555
944.555
944.555
944.555
944.555
944.555
944.555
944.555
944.555
944.555
944.555
944.555
944.555
944.555
944.555
944.555
944.555
944.555
944.555
944.555
944.555
944.555
944.555
944.555
944.555
944.555
944.555
944.555
944.555
944.555
944.555
944.555
944.555
944.555
944.555
944.555
944.555
944.555
944.555
944.555
944.555
944.555
944.555
944.555
944.555
944.555
944.555
944.555
944.555
944.555
944.555
944.555
944.555
944.555
944.555
944.555
944.555
944.555
944.555
944.555
944.555
944.555
944.555
944.555
944.555
944.555
944.555
944.555
944.555
944.555
944.555
944.555
944.555
944.555
944.555
944.555
944.555
944.555
944.555
944.555
944.555
944.555
944.555
944.555
944.555
944.555
944.555
944.555
944.555
944.555
944.555
944.555
944.555
944.555
944.555
944.555
944.555
944.555
944.555
944.555
944.555
944.555
944.555
944.555
944.555
944.555
944.555
944.555
944.555
944.555
944.555
944.555
944.555
944.555
944.555
944.555
944.555
944.555
944.555
944.555
944.555
944.555
944.555
944.555
944.555
944.555
944.555
944.555
944.555
944.555
944.555
944.555
944.555
944.555
944.555
944.555
944.555
944.555
944.555
944.555
944.555
944.555
944.555
944.555
944.555
944.555
944.555
944.555
944.555
944.555
944.555
944.555
944.555
944.555
944.555
944.555
944.555
944.555
944.555
944.555
944.555
944.555
944.555
944.555
944.555
944.555
944.555
944.555
944.555
944.555
944.555
944.555
944.555
944.555
944.555
944.555
944.555
944.555
944.555
944.555
944.555
944.555
944.555
944.555
944.555
944.555
944.555
944.555
944.555
944.555
944.555
944.555
944.555
944.555
944.555
944.555
944.555
944.555
944.555
944.555
944.555
944.555
944.555
944.555
944.555
944.555
944.555
944.555
944.555
944.555
944.555
944.555
944.555
944.555
944.555
944.555
944.555
944.555
944.555
944.555
944.555
944.555
944.555
944.555
944.555
944.555
944.555
944.555
944.555
944.555
944.555
944.555
944.555
944.555
944.555
944.555
944.555
944.555
944.555
944.555
944.555
944.555
944.555
944.555
944.555
944.555
944.555
944.555
944.555
944.555
944.555
944.555
944.555
944.555
944.555
944.555
944.555
944.555
944.555
944.555
944.555
944.555
944.555
944.555
944.555
944.555
944.555
944.555
944.555
944.555
944.555
944.555
944.555
944.555
944.555
944.555
944.555
944.555
944.555
944.555
944.555
944.555
944.555
944.555
944.555
944.555
944.555
944.555
944.555
944.555
944.555
944.555
944.555
944.555
944.555
944.555
944.555
944.555
944.555
944.555
944.555
944.555
944.555
944.555
944.555
944.555
944.555
944.555
944.555
944.555
944.555
944.555
944.555
944.555
944.555
944.555
944.555
944.555
944.555
944.555
944.555
944.555
944.555
944.555
944.555
944.555
944.555
944.555
944.555
944.555
944.555
944.555
944.555
944.555
944.555
944.555
944.555
944.555
944.555
944.555
944.555
944.555
944.555
944.555
944.555
944.555
944.555
944.555
944.555
944.555
944.555
944.555
944.555
944.555
944.555
944.555
944.555
944.555
944.555
944.555
944.555
944.555
944.555
944.555
944.555
944.555
944.555
944.555
944.555
944.555
944.555
944.555
944.555
944.555
944.555
944.555
944.555
944.555
944.555
944.555
944.555
944.555
944.555
944.555
944.555
944.555
944.555
944.555
944.555
944.555
944.555
944.555
944.555
944.555
944.555
944.555
944.555
944.555
944.555
944.555
944.555
944.555
944.555
944.555
944.555
944.555
944.555
944.555
944.555
944.555
944.555
944.555
944.555
944.555
944.555
944.555
944.555
944.555
944.555
944.555
944.555
944.555
944.555
944.555
944.555
944.555
944.555
944.555
944.555
944.555
944.555
944.555
944.555
944.555
944.555
944.555
944.555
944.555
944.555
944.555
944.555
944.555
944.555
944.555
944.555
944.555
944.555
944.555
944.555
944.555
944.555
944.555
944.555
944.555
944.555
944.555
944.555
944.555
944.555
944.555
944.555
944.555
944.555
944.555
944.555
944.555
944.555
944.555
944.555
944.555
944.555
944.555
944.555
944.555
944.555
944.555
944.555
944.555
944.555
944.555
944.555
944.555
944.555
944.555
944.555
944.555
944.555
944.555
944.555
944.555
944.555
944.555
944.555
944.555
944.555
944.555
944.555
944.555
944.555
944.555
944.555
944.555
944.555
944.555
944.555
944.555
944.555
944.555
944.555
944.555
944.555
944.555
944.555
944.555
944.555
944.555
944.555
944.555
944.555
944.555
944.555
944.555
944.555
944.555
944.555
944.555
944.555
944.555
944.555
944.555
944.555
944.555
944.555
944.555
944.555
944.555
944.555
944.555
944.555
944.555
944.555
944.555
944.555
944.555
944.555
944.555
944.555
944.555
944.555
944.555
944.555
944.555
944.555
944.555
944.555
944.555
944.555
944.555
944.555
944.555
944.555
944.555
944.555
944.555
944.555
944.555
944.555
944.555
944.555
944.555
944.555
944.555
944.555
944.555
944.555
944.555
944.555
944.555
944.555
944.555
944.555
944.555
944.555
944.555
944.555
944.555
944.555
944.555
944.555
944.555
944.555
944.555
944.555
944.555
944.555
944.555
944.555
944.555
944.555
944.555
944.555
944.555
944.555
944.555
944.555
944.555
944.555
944.555
944.555
944.555
944.555
944.555
944.555
944.555
944.555
944.555
944.555
944.555
944.555
944.555
944.555
944.555
944.555
944.555
944.555
944.555
944.555
944.555
944.555
944.555
944.555
944.555
944.555
944.555
944.555
944.555
944.555
944.555
944.555
944.555
944.555
944.555
944.555
944.555
944.555
944.555
944.555
944.555
944.555
944.555
944.555
944.555
944.555
944.555
944.555
944.555
944.555
944.555
944.555
944.555
944.555
944.555
944.555
944.555
944.555
944.555
944.555
944.555
944.555
944.555
944.555
944.555
944.555
944.555
944.555
944.555
944.555
944.555
944.555
944.555
944.555
944.555
944.555
944.555
944.555
944.555
944.555
944.555
944.555
944.555
944.555
944.555
944.555
944.555
944.555
944.555
944.555
944.555
944.555
944.555
944.555
944.555
944.555
944.555
944.555
944.555
944.555
944.555
944.555
944.555
944.555
944.555
944.555
944.555
944.555
944.555
944.555
944.555
944.555
944.555
944.555
944.555
944.555
944.555
944.555
944.555
944.555
944.555
944.555
944.555
944.555
944.555
944.555
944.555
944.555
944.555
944.555
944.555
944.555
944.555
944.555
944.555
944.555
944.555
944.555
944.555
944.555
944.555
944.555
944.555
944.555
944.555
944.555
944.555
944.555
944.555
944.555
944.555
944.555
944.555
944.555
944.555
944.555
944.555
944.555
944.555
944.555
944.555
944.555
944.555
944.555
944.555
944.555
944.555
944.555
944.555
944.555
944.555
944.555
944.555
944.555
944.555
944.555
944.555
944.555
944.555
944.555
944.555
944.555
944.555
944.555
944.555
944.555
944.555
944.555
944.555
944.555
944.555
944.555
944.555
944.555
944.555
944.555
944.555
944.555
944.555
944.555
944.555
944.555
944.555
944.555
944.555
944.555
944.555
944.555
944.555
944.555
944.555
944.555
944.555
944.555
944.555
944.555
944.555
944.555
944.555
944.555
944.555
944.555
944.555
944.555
944.555
944.555
944.555
944.555
944.555
944.555
944.555
944.555
944.555
944.555
944.555
944.555
944.555
944.555
944.555
944.555
944.555
944.555
944.555
944.555
944.555
944.555
944.555
944.555
944.555
944.555
944.555
944.555
944.555
944.555
944.555
944.555
944.555
944.555
944.555
944.555
944.555
944.555
944.555
944.555
944.555
944.555
944.555
944.555
944.555
944.555
944.555
944.555
944.555
944.555
944.555
944.555
944.555
944.555
944.555
944.555
944.555
944.555
944.555
944.555
944.555
944.555
944.555
944.555
944.555
944.555
944.555
944.555
944.555
944.555
944.555
944.555
944.555
944.555
944.555
944.555
944.555
944.555
944.555
944.555
944.555
944.555
944.555
944.555
944.555
944.555
944.555
944.555
944.555
944.555
944.555
944.555
944.555
944.555
944.555
944.555
944.555
944.555
944.555
944.555
944.555
944.555
944.555
944.555
944.555
944.555
944.555
944.555
944.555
944.555
944.555
944.555
944.555
944.555
944.555
944.555
944.555
944.555
944.555
944.555
944.555
944.555
944.555
944.555
944.555
944.555
944.555
944.555
944.555
944.555
944.555
944.555