/*--------------------------------*- C++ -*----------------------------------*\
| =========                 |                                                 |
| \\      /  F ield         | OpenFOAM: The Open Source CFD Toolbox           |
|  \\    /   O peration     | Version:  2.1.0                                 |
|   \\  /    A nd           | Web:      www.OpenFOAM.org                      |
|    \\/     M anipulation  |                                                 |
\*---------------------------------------------------------------------------*/
FoamFile
{
    version     2.0;
    format      ascii;
    class       volScalarField;
    location    "0.46";
    object      T;
}
// * * * * * * * * * * * * * * * * * * * * * * * * * * * * * * * * * * * * * //

dimensions      [0 0 0 1 0 0 0];

internalField   nonuniform List<scalar> 
6400
(
389.663
389.77
389.875
389.979
390.079
390.178
390.274
390.367
390.458
390.546
390.632
390.715
390.796
390.875
390.951
391.025
391.096
391.166
391.233
391.298
391.36
391.421
391.479
391.535
391.589
391.641
391.691
391.739
391.785
391.829
391.872
391.912
391.95
391.987
392.022
392.055
392.086
392.116
392.144
392.171
392.196
392.22
392.242
392.263
392.282
392.301
392.318
392.333
392.348
392.361
392.373
392.384
392.394
392.403
392.411
392.419
392.425
392.43
392.434
392.438
392.441
392.443
392.445
392.445
392.445
392.445
392.443
392.441
392.438
392.434
392.43
392.424
392.418
392.41
392.402
392.392
392.382
392.369
392.356
392.34
392.322
392.302
392.278
392.25
392.217
392.176
392.125
392.057
391.965
391.831
391.621
391.26
390.566
389.166
387.298
390.964
393.081
393.149
393.15
393.15
389.073
389.19
389.31
389.428
389.545
389.66
389.772
389.882
389.99
390.096
390.2
390.301
390.4
390.496
390.591
390.683
390.772
390.86
390.945
391.028
391.108
391.187
391.263
391.337
391.408
391.477
391.544
391.609
391.671
391.732
391.789
391.845
391.899
391.95
391.999
392.046
392.091
392.134
392.175
392.214
392.251
392.286
392.319
392.351
392.38
392.408
392.435
392.459
392.483
392.504
392.524
392.543
392.56
392.577
392.592
392.605
392.618
392.63
392.641
392.651
392.66
392.668
392.676
392.683
392.689
392.695
392.7
392.705
392.709
392.714
392.717
392.721
392.724
392.726
392.729
392.731
392.733
392.735
392.736
392.737
392.738
392.739
392.739
392.738
392.737
392.735
392.733
392.731
392.728
392.726
392.726
392.734
392.756
392.809
392.914
393.059
393.144
393.15
393.15
393.15
388.192
388.323
388.458
388.595
388.73
388.864
388.996
389.126
389.254
389.38
389.504
389.625
389.745
389.862
389.977
390.09
390.201
390.309
390.415
390.519
390.621
390.72
390.817
390.912
391.005
391.095
391.183
391.268
391.351
391.431
391.509
391.585
391.658
391.728
391.796
391.861
391.924
391.985
392.043
392.099
392.152
392.203
392.251
392.298
392.341
392.383
392.423
392.46
392.496
392.529
392.561
392.59
392.618
392.644
392.669
392.692
392.713
392.733
392.752
392.769
392.785
392.801
392.815
392.828
392.841
392.853
392.864
392.875
392.885
392.895
392.904
392.914
392.923
392.932
392.941
392.95
392.959
392.969
392.978
392.988
392.998
393.008
393.018
393.029
393.039
393.05
393.061
393.072
393.083
393.094
393.104
393.115
393.125
393.134
393.141
393.145
393.149
393.15
393.15
393.15
386.842
386.987
387.141
387.298
387.455
387.611
387.767
387.921
388.073
388.223
388.372
388.519
388.664
388.807
388.948
389.087
389.224
389.359
389.492
389.623
389.751
389.878
390.002
390.124
390.243
390.361
390.476
390.589
390.699
390.807
390.912
391.014
391.115
391.212
391.307
391.399
391.488
391.575
391.659
391.74
391.819
391.894
391.967
392.037
392.105
392.169
392.231
392.29
392.346
392.4
392.451
392.499
392.545
392.588
392.629
392.668
392.704
392.738
392.77
392.8
392.828
392.854
392.879
392.901
392.923
392.942
392.961
392.978
392.994
393.008
393.022
393.035
393.047
393.058
393.068
393.077
393.086
393.094
393.102
393.108
393.115
393.12
393.125
393.13
393.134
393.137
393.14
393.142
393.144
393.146
393.147
393.148
393.149
393.149
393.15
393.15
393.15
393.15
393.15
393.15
384.796
384.956
385.128
385.304
385.483
385.662
385.841
386.019
386.197
386.373
386.548
386.721
386.894
387.065
387.234
387.402
387.569
387.733
387.896
388.058
388.218
388.376
388.532
388.686
388.838
388.987
389.135
389.281
389.425
389.567
389.707
389.845
389.981
390.114
390.245
390.373
390.499
390.623
390.744
390.862
390.978
391.09
391.2
391.307
391.411
391.512
391.61
391.705
391.796
391.885
391.97
392.051
392.13
392.204
392.276
392.344
392.409
392.471
392.529
392.583
392.635
392.683
392.729
392.771
392.81
392.846
392.879
392.91
392.938
392.964
392.987
393.008
393.027
393.044
393.06
393.073
393.085
393.096
393.105
393.113
393.119
393.125
393.13
393.135
393.138
393.141
393.144
393.146
393.147
393.148
393.149
393.149
393.15
393.15
393.15
393.15
393.15
393.15
393.15
393.15
381.631
381.804
381.99
382.181
382.375
382.57
382.767
382.963
383.159
383.355
383.55
383.745
383.939
384.132
384.325
384.517
384.709
384.9
385.09
385.279
385.468
385.656
385.843
386.029
386.214
386.398
386.58
386.762
386.943
387.122
387.301
387.478
387.654
387.828
388.001
388.173
388.344
388.512
388.68
388.845
389.009
389.171
389.331
389.489
389.645
389.798
389.95
390.098
390.244
390.388
390.528
390.665
390.8
390.93
391.058
391.182
391.303
391.419
391.532
391.641
391.746
391.846
391.943
392.035
392.123
392.206
392.285
392.36
392.431
392.497
392.559
392.618
392.672
392.722
392.769
392.812
392.852
392.889
392.922
392.953
392.981
393.006
393.029
393.049
393.067
393.083
393.098
393.11
393.121
393.13
393.137
393.142
393.145
393.148
393.149
393.149
393.149
393.15
393.15
393.15
376.731
376.907
377.094
377.287
377.483
377.682
377.88
378.08
378.279
378.479
378.678
378.877
379.076
379.275
379.474
379.674
379.874
380.074
380.274
380.475
380.677
380.88
381.083
381.287
381.491
381.695
381.899
382.103
382.307
382.51
382.714
382.918
383.122
383.326
383.529
383.734
383.938
384.142
384.347
384.551
384.756
384.962
385.167
385.373
385.579
385.786
385.992
386.199
386.406
386.613
386.82
387.026
387.233
387.439
387.645
387.85
388.055
388.258
388.461
388.662
388.861
389.058
389.253
389.446
389.635
389.822
390.005
390.184
390.359
390.531
390.697
390.86
391.017
391.17
391.318
391.461
391.598
391.73
391.858
391.98
392.097
392.208
392.314
392.415
392.511
392.602
392.688
392.768
392.842
392.91
392.97
393.021
393.062
393.092
393.111
393.123
393.131
393.137
393.141
393.143
369.564
369.728
369.897
370.073
370.248
370.426
370.603
370.781
370.958
371.135
371.31
371.486
371.661
371.835
372.009
372.183
372.356
372.53
372.703
372.877
373.05
373.225
373.399
373.575
373.75
373.926
374.102
374.279
374.456
374.635
374.814
374.994
375.176
375.359
375.543
375.73
375.918
376.108
376.301
376.496
376.693
376.894
377.097
377.303
377.513
377.726
377.943
378.164
378.388
378.617
378.85
379.087
379.328
379.574
379.825
380.08
380.341
380.605
380.875
381.15
381.429
381.713
382.001
382.294
382.591
382.892
383.197
383.505
383.817
384.132
384.451
384.771
385.094
385.42
385.747
386.076
386.406
386.738
387.071
387.406
387.743
388.082
388.425
388.77
389.119
389.471
389.826
390.183
390.54
390.895
391.24
391.571
391.877
392.15
392.375
392.54
392.675
392.783
392.864
392.916
359.49
359.605
359.724
359.845
359.964
360.084
360.202
360.32
360.435
360.55
360.661
360.773
360.881
360.99
361.095
361.2
361.302
361.404
361.503
361.602
361.699
361.795
361.889
361.984
362.078
362.174
362.27
362.368
362.467
362.569
362.671
362.777
362.884
362.994
363.106
363.221
363.34
363.461
363.586
363.714
363.846
363.982
364.122
364.265
364.413
364.565
364.722
364.883
365.049
365.22
365.396
365.578
365.764
365.957
366.155
366.359
366.569
366.787
367.011
367.242
367.481
367.727
367.98
368.242
368.513
368.792
369.08
369.378
369.686
370.005
370.334
370.674
371.027
371.391
371.77
372.162
372.571
372.998
373.444
373.91
374.396
374.907
375.445
376.015
376.622
377.268
377.96
378.702
379.5
380.357
381.272
382.242
383.258
384.309
385.372
386.401
387.302
388.127
388.834
389.358
346.236
346.271
346.305
346.34
346.373
346.406
346.437
346.469
346.499
346.528
346.557
346.585
346.612
346.639
346.665
346.691
346.717
346.742
346.768
346.793
346.819
346.845
346.872
346.899
346.927
346.956
346.986
347.017
347.048
347.081
347.115
347.15
347.186
347.223
347.261
347.301
347.341
347.383
347.425
347.469
347.513
347.559
347.606
347.653
347.701
347.751
347.801
347.852
347.905
347.958
348.012
348.067
348.123
348.18
348.238
348.297
348.357
348.418
348.481
348.545
348.611
348.68
348.75
348.822
348.897
348.975
349.056
349.14
349.228
349.321
349.418
349.521
349.63
349.746
349.869
350.002
350.143
350.293
350.456
350.632
350.826
351.038
351.27
351.523
351.801
352.106
352.441
352.808
353.236
353.735
354.319
355.002
355.8
356.733
357.83
359.125
360.62
362.178
363.682
364.911
332.231
332.18
332.132
332.085
332.04
331.995
331.953
331.911
331.871
331.832
331.795
331.758
331.723
331.688
331.655
331.622
331.59
331.558
331.527
331.495
331.464
331.433
331.402
331.37
331.338
331.305
331.271
331.237
331.201
331.164
331.126
331.087
331.046
331.004
330.96
330.914
330.866
330.817
330.765
330.712
330.657
330.599
330.539
330.478
330.413
330.347
330.278
330.206
330.132
330.055
329.975
329.892
329.806
329.717
329.624
329.528
329.427
329.322
329.213
329.098
328.977
328.85
328.716
328.574
328.424
328.266
328.097
327.919
327.729
327.527
327.312
327.083
326.838
326.576
326.297
325.998
325.678
325.335
324.969
324.579
324.161
323.717
323.243
322.741
322.209
321.647
321.055
320.432
319.758
319.022
318.214
317.328
316.372
315.339
314.226
313.029
311.757
310.436
309.137
307.991
320.945
320.83
320.713
320.594
320.476
320.357
320.24
320.122
320.007
319.891
319.777
319.663
319.551
319.438
319.327
319.216
319.106
318.995
318.886
318.776
318.666
318.556
318.446
318.336
318.225
318.113
318.001
317.887
317.773
317.657
317.54
317.421
317.301
317.178
317.054
316.927
316.798
316.666
316.532
316.395
316.255
316.111
315.964
315.814
315.66
315.501
315.339
315.172
315.001
314.825
314.644
314.458
314.267
314.07
313.867
313.659
313.444
313.223
312.995
312.759
312.514
312.261
311.998
311.726
311.443
311.149
310.843
310.524
310.193
309.847
309.487
309.111
308.72
308.311
307.886
307.442
306.981
306.501
306.003
305.488
304.955
304.405
303.841
303.263
302.673
302.076
301.472
300.866
300.262
299.666
299.082
298.511
297.938
297.377
296.834
296.318
295.837
295.406
295.042
294.772
312.542
312.397
312.246
312.089
311.932
311.773
311.614
311.454
311.295
311.135
310.975
310.815
310.656
310.496
310.337
310.177
310.017
309.857
309.698
309.537
309.376
309.215
309.054
308.891
308.728
308.564
308.4
308.235
308.068
307.901
307.732
307.562
307.391
307.218
307.043
306.867
306.689
306.509
306.327
306.143
305.956
305.768
305.577
305.383
305.187
304.989
304.787
304.583
304.376
304.166
303.952
303.736
303.516
303.293
303.066
302.836
302.602
302.364
302.123
301.877
301.629
301.376
301.119
300.859
300.595
300.327
300.056
299.781
299.503
299.222
298.938
298.651
298.363
298.073
297.782
297.491
297.2
296.911
296.624
296.34
296.062
295.789
295.524
295.268
295.023
294.789
294.57
294.365
294.177
294.008
293.858
293.729
293.622
293.529
293.449
293.382
293.327
293.284
293.252
293.231
306.457
306.309
306.152
305.989
305.824
305.657
305.489
305.32
305.151
304.981
304.812
304.643
304.473
304.304
304.135
303.965
303.796
303.626
303.456
303.286
303.116
302.945
302.774
302.603
302.431
302.259
302.087
301.914
301.741
301.567
301.393
301.219
301.044
300.869
300.693
300.517
300.341
300.164
299.987
299.81
299.633
299.456
299.278
299.101
298.924
298.748
298.571
298.395
298.22
298.045
297.871
297.697
297.525
297.353
297.182
297.012
296.844
296.677
296.511
296.348
296.186
296.027
295.87
295.715
295.564
295.415
295.269
295.126
294.987
294.852
294.721
294.594
294.471
294.353
294.239
294.13
294.027
293.928
293.836
293.749
293.668
293.593
293.524
293.462
293.406
293.357
293.314
293.277
293.246
293.221
293.201
293.187
293.176
293.169
293.163
293.159
293.156
293.154
293.153
293.152
302.341
302.203
302.055
301.901
301.744
301.585
301.426
301.266
301.107
300.947
300.788
300.63
300.471
300.313
300.156
299.999
299.842
299.686
299.53
299.375
299.22
299.066
298.912
298.759
298.606
298.455
298.304
298.153
298.004
297.855
297.708
297.561
297.415
297.271
297.127
296.985
296.845
296.706
296.568
296.432
296.298
296.166
296.035
295.907
295.781
295.657
295.536
295.417
295.301
295.187
295.076
294.968
294.863
294.76
294.661
294.565
294.472
294.383
294.297
294.214
294.135
294.059
293.986
293.917
293.851
293.789
293.73
293.675
293.623
293.574
293.528
293.485
293.446
293.409
293.376
293.345
293.317
293.291
293.269
293.248
293.231
293.215
293.202
293.19
293.181
293.173
293.166
293.161
293.158
293.155
293.153
293.152
293.151
293.151
293.15
293.15
293.15
293.15
293.15
293.15
299.628
299.506
299.373
299.236
299.096
298.955
298.814
298.674
298.534
298.394
298.256
298.118
297.981
297.845
297.71
297.576
297.443
297.312
297.181
297.052
296.924
296.797
296.672
296.548
296.426
296.305
296.186
296.068
295.953
295.839
295.727
295.617
295.509
295.403
295.299
295.197
295.097
294.999
294.904
294.811
294.721
294.633
294.548
294.465
294.385
294.308
294.233
294.162
294.093
294.026
293.963
293.903
293.845
293.79
293.738
293.689
293.642
293.599
293.557
293.519
293.483
293.449
293.418
293.389
293.363
293.338
293.316
293.295
293.277
293.26
293.245
293.231
293.219
293.208
293.198
293.19
293.183
293.177
293.171
293.167
293.163
293.16
293.157
293.155
293.154
293.153
293.152
293.151
293.151
293.15
293.15
293.15
293.15
293.15
293.15
293.15
293.15
293.15
293.15
293.15
297.789
297.683
297.569
297.452
297.333
297.215
297.097
296.98
296.864
296.749
296.635
296.522
296.411
296.301
296.192
296.085
295.979
295.874
295.772
295.67
295.571
295.473
295.376
295.282
295.189
295.098
295.009
294.921
294.836
294.753
294.671
294.592
294.515
294.44
294.368
294.297
294.229
294.164
294.1
294.039
293.98
293.924
293.87
293.818
293.769
293.722
293.677
293.635
293.595
293.557
293.522
293.488
293.457
293.428
293.401
293.375
293.352
293.33
293.311
293.292
293.276
293.26
293.247
293.234
293.223
293.213
293.204
293.196
293.189
293.183
293.177
293.173
293.169
293.165
293.162
293.16
293.158
293.156
293.154
293.153
293.152
293.152
293.151
293.151
293.151
293.15
293.15
293.15
293.15
293.15
293.15
293.15
293.15
293.15
293.15
293.15
293.15
293.15
293.15
293.15
296.484
296.394
296.3
296.204
296.108
296.012
295.918
295.824
295.732
295.641
295.551
295.462
295.375
295.29
295.206
295.123
295.042
294.962
294.884
294.808
294.733
294.66
294.588
294.518
294.45
294.384
294.319
294.256
294.195
294.136
294.079
294.024
293.97
293.919
293.869
293.822
293.777
293.733
293.692
293.652
293.614
293.578
293.545
293.512
293.482
293.454
293.427
293.402
293.378
293.356
293.336
293.317
293.3
293.284
293.269
293.255
293.243
293.232
293.221
293.212
293.204
293.197
293.19
293.184
293.179
293.175
293.171
293.167
293.164
293.162
293.159
293.158
293.156
293.155
293.154
293.153
293.152
293.152
293.151
293.151
293.151
293.15
293.15
293.15
293.15
293.15
293.15
293.15
293.15
293.15
293.15
293.15
293.15
293.15
293.15
293.15
293.15
293.15
293.15
293.15
295.525
295.453
295.377
295.3
295.225
295.15
295.076
295.004
294.933
294.863
294.794
294.726
294.66
294.596
294.532
294.471
294.41
294.351
294.294
294.238
294.183
294.13
294.079
294.029
293.98
293.933
293.888
293.844
293.802
293.761
293.722
293.685
293.649
293.615
293.582
293.551
293.522
293.493
293.467
293.442
293.418
293.395
293.374
293.354
293.336
293.319
293.303
293.288
293.274
293.261
293.249
293.238
293.228
293.219
293.211
293.203
293.197
293.19
293.185
293.18
293.176
293.172
293.169
293.166
293.163
293.161
293.159
293.157
293.156
293.155
293.154
293.153
293.152
293.152
293.151
293.151
293.151
293.151
293.15
293.15
293.15
293.15
293.15
293.15
293.15
293.15
293.15
293.15
293.15
293.15
293.15
293.15
293.15
293.15
293.15
293.15
293.15
293.15
293.15
293.15
294.673
294.618
294.563
294.508
294.454
294.401
294.349
294.299
294.249
294.2
294.153
294.107
294.062
294.018
293.975
293.934
293.894
293.855
293.817
293.781
293.746
293.712
293.679
293.648
293.617
293.588
293.56
293.534
293.508
293.484
293.46
293.438
293.417
293.397
293.379
293.361
293.344
293.328
293.313
293.299
293.286
293.274
293.262
293.252
293.242
293.233
293.224
293.217
293.21
293.203
293.197
293.192
293.187
293.182
293.178
293.174
293.171
293.168
293.166
293.163
293.161
293.16
293.158
293.157
293.156
293.155
293.154
293.153
293.153
293.152
293.152
293.151
293.151
293.151
293.151
293.15
293.15
293.15
293.15
293.15
293.15
293.15
293.15
293.15
293.15
293.15
293.15
293.15
293.15
293.15
293.15
293.15
293.15
293.15
293.15
293.15
293.15
293.15
293.15
293.15
393.15
393.15
393.15
393.15
393.15
393.15
393.15
393.15
393.15
393.15
393.15
393.15
393.15
393.15
393.15
393.15
393.15
393.15
393.15
393.15
393.15
393.15
393.15
393.15
393.15
393.15
393.15
393.15
393.15
393.15
393.15
393.15
393.15
393.15
393.15
393.15
393.15
393.15
393.15
393.15
393.15
393.15
393.15
393.15
393.15
393.15
393.15
393.15
393.15
393.15
393.15
393.15
393.15
393.15
393.15
393.15
393.15
393.15
393.15
393.15
393.15
393.15
393.15
393.15
393.15
393.15
393.15
393.15
393.15
393.15
393.15
393.15
393.15
393.15
393.15
393.15
393.15
393.149
393.148
393.144
393.15
393.15
393.15
393.15
393.15
393.15
393.15
393.15
393.15
393.15
393.15
393.15
393.15
393.149
393.149
393.148
393.145
393.139
393.122
393.05
393.15
393.15
393.15
393.15
393.15
393.149
393.149
393.149
393.148
393.148
393.147
393.146
393.145
393.142
393.137
393.127
393.104
393.046
392.859
391.935
393.143
393.141
393.139
393.137
393.133
393.13
393.127
393.123
393.121
393.12
393.117
393.113
393.104
393.089
393.058
392.993
392.846
392.455
391.082
383.384
392.916
392.89
392.861
392.83
392.798
392.773
392.757
392.757
392.767
392.779
392.787
392.786
392.77
392.722
392.605
392.346
391.754
390.207
384.901
353.931
389.48
389.32
389.169
389.027
388.921
388.919
388.984
389.122
389.261
389.418
389.578
389.748
389.895
389.991
389.839
389.234
387.658
383.977
374.51
321.151
365.337
365.018
364.715
364.455
364.301
364.395
364.578
364.779
365.039
365.418
365.878
366.52
367.239
368.215
368.913
368.948
366.956
361.748
349.687
320.748
307.469
307.638
307.763
307.847
307.83
307.552
307.189
306.815
306.422
305.963
305.465
304.851
304.178
303.316
302.737
302.599
303.377
304.674
305.594
306.778
294.695
294.763
294.824
294.879
294.915
294.899
294.846
294.752
294.657
294.551
294.446
294.323
294.208
294.075
293.99
293.962
294.034
294.188
294.486
299.553
293.229
293.238
293.248
293.259
293.27
293.278
293.282
293.279
293.271
293.26
293.25
293.238
293.228
293.219
293.214
293.215
293.226
293.264
293.449
295.505
293.152
293.152
293.153
293.154
293.154
293.155
293.156
293.157
293.157
293.156
293.156
293.155
293.155
293.154
293.154
293.155
293.157
293.165
293.201
293.534
293.15
293.15
293.15
293.15
293.15
293.15
293.15
293.15
293.15
293.15
293.15
293.15
293.15
293.15
293.15
293.15
293.151
293.151
293.152
293.157
293.15
293.15
293.15
293.15
293.15
293.15
293.15
293.15
293.15
293.15
293.15
293.15
293.15
293.15
293.15
293.15
293.15
293.15
293.15
293.15
293.15
293.15
293.15
293.15
293.15
293.15
293.15
293.15
293.15
293.15
293.15
293.15
293.15
293.15
293.15
293.15
293.15
293.15
293.15
293.15
293.15
293.15
293.15
293.15
293.15
293.15
293.15
293.15
293.15
293.15
293.15
293.15
293.15
293.15
293.15
293.15
293.15
293.15
293.15
293.15
293.15
293.15
293.15
293.15
293.15
293.15
293.15
293.15
293.15
293.15
293.15
293.15
293.15
293.15
293.15
293.15
293.15
293.15
293.15
293.15
293.15
293.15
293.15
293.15
293.15
293.15
293.15
293.15
293.15
293.15
293.15
293.15
293.15
293.15
293.15
293.15
293.15
293.15
293.15
293.15
393.15
393.15
393.15
393.15
393.15
393.15
393.15
393.15
393.15
393.15
393.15
393.15
393.15
393.15
393.15
393.15
393.15
393.15
393.15
393.15
393.15
393.15
393.15
393.15
393.15
393.15
393.15
393.15
393.15
393.15
393.15
393.15
393.15
393.15
393.15
393.15
393.15
393.15
393.15
393.15
393.15
393.15
393.15
393.15
393.15
393.15
393.15
393.15
393.15
393.15
393.15
393.15
393.15
393.15
393.15
393.15
393.15
393.15
393.15
393.15
393.15
393.15
393.15
393.15
393.15
393.15
393.15
393.15
393.15
393.15
393.15
393.15
393.15
393.15
393.15
393.15
393.15
393.15
393.15
393.15
393.15
393.15
393.15
393.15
393.15
393.15
393.15
393.15
393.15
393.15
393.15
393.15
393.15
393.15
393.15
393.15
393.15
393.15
393.15
393.15
393.15
393.15
393.15
393.15
393.15
393.15
393.15
393.15
393.15
393.15
393.15
393.15
393.15
393.15
393.15
393.15
393.15
393.15
393.15
393.15
393.15
393.15
393.15
393.15
393.15
393.15
393.15
393.15
393.15
393.15
393.15
393.15
393.15
393.15
393.15
393.15
393.15
393.15
393.15
393.15
393.15
393.15
393.15
393.15
393.15
393.15
393.15
393.15
393.15
393.15
393.15
393.15
393.15
393.15
393.15
393.15
393.15
393.15
393.15
393.15
393.15
393.15
393.15
393.15
393.15
393.15
393.15
393.15
393.15
393.15
393.15
393.15
393.15
393.15
393.15
393.15
393.15
393.15
393.15
393.15
393.15
393.15
393.15
393.15
393.15
393.15
393.15
393.15
393.15
393.15
393.15
393.15
393.15
393.15
393.15
393.15
393.15
393.15
393.15
393.15
393.15
393.15
393.15
393.15
393.15
393.15
393.15
393.15
393.15
393.15
393.15
393.15
393.15
393.15
393.15
393.15
393.15
393.15
393.15
393.15
393.15
393.15
393.15
393.15
393.15
393.15
393.15
393.15
393.15
393.15
393.15
393.15
393.15
393.15
393.15
393.15
393.15
393.15
393.15
393.15
393.15
393.15
393.15
393.15
393.15
393.15
393.15
393.15
393.15
393.15
393.15
393.15
393.15
393.15
393.15
393.15
393.15
393.15
393.15
393.15
393.15
393.15
393.15
393.15
393.15
393.15
393.15
393.15
393.15
393.15
393.15
393.15
393.15
393.15
393.15
393.15
393.15
393.15
393.15
393.15
393.15
393.15
393.15
393.15
393.15
393.15
393.15
393.15
393.15
393.15
393.15
393.15
393.15
393.15
393.15
393.15
393.15
393.15
393.15
393.15
393.15
393.15
393.15
393.15
393.15
393.15
393.15
393.15
393.15
393.15
393.15
393.15
393.15
393.15
393.15
393.15
393.15
393.15
393.15
393.15
393.15
393.15
393.15
393.15
393.15
393.15
393.15
393.15
393.15
393.15
393.15
393.15
393.15
393.15
393.15
393.15
393.15
393.15
393.15
393.15
393.15
393.15
393.15
393.15
393.15
393.15
393.15
393.15
393.15
393.15
393.15
393.15
393.15
393.15
393.15
393.15
393.15
393.15
393.15
393.15
393.15
393.15
393.15
393.15
393.15
393.15
393.15
393.15
393.15
393.15
393.15
393.15
393.15
393.15
393.15
393.15
393.15
393.15
393.15
393.15
393.15
393.15
393.15
393.15
393.15
393.15
393.15
393.15
393.15
393.15
393.15
393.15
393.15
393.15
393.15
393.15
393.15
393.15
393.15
393.15
393.15
393.15
393.15
393.15
393.15
393.15
393.15
393.15
393.15
393.15
393.15
393.15
393.15
393.15
393.15
393.15
393.15
393.15
393.15
393.15
393.15
393.15
393.15
393.15
393.15
393.15
393.15
393.15
393.15
393.15
393.15
393.15
393.15
393.15
393.15
393.15
393.15
393.15
393.15
393.15
393.15
393.15
393.15
393.15
393.15
393.15
393.15
393.15
393.15
393.15
393.15
393.15
393.15
393.15
393.15
393.15
393.15
393.15
393.15
393.15
393.15
393.15
393.15
393.15
393.15
393.15
393.15
393.15
393.15
393.15
393.15
393.15
393.15
393.15
393.15
393.15
393.15
393.15
393.15
393.15
393.15
393.15
393.15
393.15
393.15
393.15
393.15
393.15
393.15
393.15
393.15
393.15
393.15
393.15
393.15
393.15
393.15
393.15
393.15
393.15
393.15
393.15
393.15
393.15
393.15
393.15
393.15
393.15
393.15
393.15
393.15
393.15
393.15
393.15
393.15
393.15
393.15
393.15
393.15
393.15
393.15
393.15
393.15
393.15
393.15
393.15
393.15
393.15
393.15
393.15
393.15
393.15
393.15
393.15
393.15
393.15
393.15
393.15
393.15
393.15
393.15
393.15
393.15
393.15
393.15
393.15
393.15
393.15
393.15
393.15
393.15
393.15
393.15
393.15
393.15
393.15
393.15
393.15
393.15
393.15
393.15
393.15
393.15
393.15
393.15
393.15
393.15
393.15
393.15
393.15
393.15
393.15
393.15
393.15
393.15
393.15
393.15
393.15
393.15
393.15
393.15
393.15
393.15
393.15
393.15
393.15
393.15
393.15
393.15
393.15
393.15
393.15
393.15
393.15
393.15
393.15
393.15
393.15
393.15
393.15
393.15
393.15
393.15
393.15
393.15
393.15
393.15
393.15
393.15
393.15
393.15
393.15
393.15
393.15
393.15
393.15
393.15
393.15
393.15
393.15
393.15
393.15
393.15
393.15
393.15
393.15
393.15
393.15
393.15
393.15
393.15
393.15
393.15
393.15
393.15
393.15
393.15
393.15
393.15
393.15
393.15
393.15
393.15
393.15
393.15
393.15
393.15
393.15
393.15
393.15
393.15
393.15
393.15
393.15
393.15
393.15
393.15
393.15
393.15
393.15
393.15
393.15
393.15
393.15
393.15
393.15
393.15
393.15
393.15
393.15
393.15
393.15
393.15
393.15
393.15
393.15
393.15
393.15
393.15
393.15
393.15
393.15
393.15
393.15
393.15
393.15
393.15
393.15
393.15
393.15
393.15
393.15
393.15
393.15
393.15
393.15
393.15
393.15
393.15
393.15
393.15
393.15
393.15
393.15
393.15
393.15
393.15
393.15
393.15
393.15
393.15
393.15
393.15
393.15
393.15
393.15
393.15
393.15
393.15
393.15
393.15
393.15
393.15
393.15
393.15
393.15
393.15
393.15
393.15
393.15
393.15
393.15
393.15
393.15
393.15
393.15
393.15
393.15
393.15
393.15
393.15
393.15
393.15
393.15
393.15
393.15
393.15
393.15
393.15
393.15
393.15
393.15
393.15
393.15
393.15
393.15
393.15
393.15
393.15
393.15
393.15
393.15
393.15
393.15
393.15
393.15
393.15
393.15
393.15
393.15
393.15
393.15
393.15
393.15
393.15
393.15
393.15
393.15
393.15
393.15
393.15
393.15
393.15
393.15
393.15
393.15
393.15
393.15
393.15
393.15
393.15
393.15
393.15
393.15
393.15
393.15
393.15
393.15
393.15
393.15
393.15
393.15
393.15
393.15
393.15
393.15
393.15
393.15
393.15
393.15
393.15
393.15
393.15
393.15
393.15
393.15
393.15
393.15
393.15
393.15
393.15
393.15
393.15
393.15
393.15
393.15
393.15
393.15
393.15
393.15
393.15
393.15
393.15
393.15
393.15
393.15
393.15
393.15
393.15
393.15
393.15
393.15
393.15
393.15
393.15
393.15
393.15
393.15
393.15
393.15
393.15
393.15
393.15
393.15
393.15
393.15
393.15
393.15
393.15
393.15
393.15
393.15
393.15
393.15
393.15
393.15
393.15
393.15
393.15
393.15
393.15
393.15
393.15
393.15
393.15
393.15
393.15
393.15
393.15
393.15
393.15
393.15
393.15
393.15
393.15
393.15
393.15
393.15
393.15
393.15
393.15
393.15
393.15
393.15
393.15
393.15
393.15
393.15
393.15
393.15
393.15
393.15
393.15
393.15
393.15
393.15
393.15
393.15
393.15
393.15
393.15
393.15
393.15
393.15
393.15
393.15
393.15
393.15
393.15
393.15
393.15
393.15
393.15
393.15
393.15
393.15
393.15
393.15
393.15
393.15
393.15
393.15
393.15
393.15
393.15
393.15
393.15
393.15
393.15
393.15
393.15
393.15
393.15
393.15
393.15
393.15
393.15
393.15
393.15
393.15
393.15
393.15
393.15
393.15
393.15
393.15
393.15
393.15
393.15
393.15
393.15
393.15
393.15
393.15
393.15
393.15
393.15
393.15
393.15
393.15
393.15
393.15
393.15
393.15
393.15
393.15
393.15
393.15
393.15
393.15
393.15
393.15
393.15
393.15
393.15
393.15
393.15
393.15
393.15
393.15
393.15
393.15
393.15
393.15
393.15
393.15
393.15
393.15
393.15
393.15
393.15
393.15
393.15
393.15
393.15
393.15
393.15
393.15
393.15
393.15
393.15
393.15
393.15
393.15
393.15
393.15
393.15
393.15
393.15
393.15
393.15
393.15
393.15
393.15
393.15
393.15
393.15
393.15
393.15
393.15
393.15
393.15
393.15
393.15
393.15
393.15
393.15
393.15
393.15
393.15
393.15
393.15
393.15
393.15
393.15
393.15
393.15
393.15
393.15
393.15
393.15
393.15
393.15
393.15
393.15
393.15
393.15
393.15
393.15
393.15
393.15
393.15
393.15
393.15
393.15
393.15
393.15
393.15
393.15
393.15
393.15
393.15
393.15
393.15
393.15
393.15
393.15
393.15
393.15
393.15
393.15
393.15
393.15
393.15
393.15
393.15
393.15
393.15
393.15
393.15
393.15
393.15
393.15
393.15
393.15
393.15
393.15
393.15
393.15
393.15
393.15
393.15
393.15
393.15
393.15
393.15
393.15
393.15
393.15
393.15
393.15
393.15
393.15
393.15
393.15
393.15
393.15
393.15
393.15
393.15
393.15
393.15
393.15
393.15
393.15
393.15
393.15
393.15
393.15
393.15
393.15
393.15
393.15
393.15
393.15
393.15
393.15
393.15
393.15
393.15
393.15
393.15
393.15
393.15
393.15
393.15
393.15
393.15
393.15
393.15
393.15
393.15
393.15
393.15
393.15
393.15
393.15
393.15
393.15
393.15
393.15
393.15
393.15
393.15
393.15
393.15
393.15
393.15
393.15
393.15
393.15
393.15
393.15
393.15
393.15
393.15
393.15
393.15
393.15
393.15
393.15
393.15
393.15
393.15
393.15
393.15
393.15
393.15
393.15
393.15
393.15
393.15
393.15
393.15
393.15
393.15
393.15
393.15
393.15
393.15
393.15
393.15
393.15
393.15
393.15
393.15
393.15
393.15
393.15
393.15
393.15
393.15
393.15
393.15
393.15
393.15
393.15
393.15
393.15
393.15
393.15
393.15
393.15
393.15
393.15
393.15
393.15
393.15
393.15
393.15
393.15
393.15
393.15
393.15
393.15
393.15
393.15
393.15
393.15
393.15
393.15
393.15
393.15
393.15
393.15
393.15
393.15
393.15
393.15
393.15
393.15
393.15
393.15
393.15
393.15
393.15
393.15
393.15
393.15
393.15
393.15
393.15
393.15
393.15
393.15
393.15
393.15
393.15
393.15
393.15
393.15
393.15
393.15
393.15
393.15
393.15
393.15
393.15
393.15
393.15
393.15
393.15
393.15
393.15
393.15
393.15
393.15
393.15
393.15
393.15
393.15
393.15
393.15
393.15
393.15
393.15
393.15
393.15
393.15
393.15
393.15
393.15
393.15
393.15
393.15
393.15
393.15
393.15
393.15
393.15
393.15
393.15
393.15
393.15
393.15
393.15
393.15
393.15
393.15
393.15
393.15
393.15
393.15
393.15
393.15
393.15
393.15
393.15
393.15
393.15
393.15
393.15
393.15
393.15
393.15
393.15
393.15
393.15
393.15
393.15
393.15
393.15
393.15
393.15
393.15
393.15
393.15
393.15
393.15
393.15
393.15
393.15
393.15
393.15
393.15
393.15
393.15
393.15
393.15
393.15
393.15
393.15
393.15
393.15
393.15
393.15
393.15
393.15
393.15
393.15
393.15
393.15
393.15
393.15
393.15
393.15
393.15
393.15
393.15
393.15
393.15
393.15
393.15
393.15
393.15
393.15
393.15
393.15
393.15
393.15
393.15
393.15
393.15
393.15
393.15
393.15
393.15
393.15
393.15
393.15
393.15
393.15
393.15
393.15
393.15
393.15
393.15
393.15
393.15
393.15
393.15
393.15
393.15
393.15
393.15
393.15
393.15
393.15
393.15
393.15
393.15
393.15
393.15
393.15
393.15
393.15
393.15
393.15
393.15
393.15
393.15
393.15
393.15
393.15
393.15
393.15
393.15
393.15
393.15
393.15
393.15
393.15
393.15
393.15
393.15
393.15
393.15
393.15
393.15
393.15
393.15
393.15
393.15
393.15
393.15
393.15
393.15
393.15
393.15
393.15
393.15
393.15
393.15
393.15
393.15
393.15
393.15
393.15
393.15
393.15
393.15
393.15
393.15
393.15
393.15
393.15
393.15
393.15
393.15
393.15
393.15
393.15
393.15
393.15
393.15
393.15
393.15
393.15
393.15
393.15
393.15
393.15
393.15
393.15
393.15
393.15
393.15