/*--------------------------------*- C++ -*----------------------------------*\
| =========                 |                                                 |
| \\      /  F ield         | OpenFOAM: The Open Source CFD Toolbox           |
|  \\    /   O peration     | Version:  2.1.0                                 |
|   \\  /    A nd           | Web:      www.OpenFOAM.org                      |
|    \\/     M anipulation  |                                                 |
\*---------------------------------------------------------------------------*/
FoamFile
{
    version     2.0;
    format      ascii;
    class       volVectorField;
    location    "0.46";
    object      U;
}
// * * * * * * * * * * * * * * * * * * * * * * * * * * * * * * * * * * * * * //

dimensions      [0 1 -1 0 0 0 0];

internalField   nonuniform List<vector> 
6400
(
(-1.30108 -4.50005e-05 0)
(-1.29992 -0.00049914 0)
(-1.29753 -0.000789154 0)
(-1.2942 -0.000936714 0)
(-1.29041 -0.00102389 0)
(-1.28631 -0.00108239 0)
(-1.28202 -0.00112458 0)
(-1.27758 -0.00115777 0)
(-1.27301 -0.00118581 0)
(-1.26834 -0.00121113 0)
(-1.26357 -0.00123502 0)
(-1.2587 -0.00125829 0)
(-1.25373 -0.0012814 0)
(-1.24868 -0.00130457 0)
(-1.24353 -0.00132803 0)
(-1.23829 -0.00135179 0)
(-1.23294 -0.00137599 0)
(-1.22751 -0.00140056 0)
(-1.22197 -0.00142561 0)
(-1.21633 -0.00145101 0)
(-1.21058 -0.00147686 0)
(-1.20474 -0.00150297 0)
(-1.19878 -0.00152961 0)
(-1.19272 -0.00155678 0)
(-1.18655 -0.00158402 0)
(-1.18028 -0.00161186 0)
(-1.17388 -0.00164143 0)
(-1.16737 -0.00167215 0)
(-1.16072 -0.00170386 0)
(-1.15396 -0.00173647 0)
(-1.14706 -0.00177013 0)
(-1.14002 -0.00180484 0)
(-1.13284 -0.00184077 0)
(-1.12552 -0.00187797 0)
(-1.11804 -0.00191654 0)
(-1.11041 -0.0019565 0)
(-1.10262 -0.00199795 0)
(-1.09466 -0.00204095 0)
(-1.08653 -0.00208564 0)
(-1.07821 -0.00213216 0)
(-1.06971 -0.00218085 0)
(-1.06101 -0.00223165 0)
(-1.0521 -0.00228466 0)
(-1.04298 -0.00234 0)
(-1.03363 -0.00239772 0)
(-1.02405 -0.00245784 0)
(-1.01423 -0.00252041 0)
(-1.00415 -0.00258534 0)
(-0.993815 -0.0026525 0)
(-0.983208 -0.00272202 0)
(-0.972323 -0.00279333 0)
(-0.961155 -0.00286477 0)
(-0.949697 -0.00294018 0)
(-0.937927 -0.00302197 0)
(-0.925825 -0.00310814 0)
(-0.913374 -0.00319713 0)
(-0.900582 -0.00328414 0)
(-0.887449 -0.0033674 0)
(-0.873991 -0.00344905 0)
(-0.860208 -0.0035316 0)
(-0.846095 -0.003616 0)
(-0.831644 -0.00370236 0)
(-0.816847 -0.00379135 0)
(-0.801691 -0.00388373 0)
(-0.786164 -0.00397965 0)
(-0.770249 -0.00407969 0)
(-0.753931 -0.00418414 0)
(-0.737189 -0.00429382 0)
(-0.720004 -0.00440918 0)
(-0.702351 -0.00453062 0)
(-0.684206 -0.00465848 0)
(-0.665542 -0.00479344 0)
(-0.646331 -0.00493596 0)
(-0.626541 -0.00508689 0)
(-0.606137 -0.00524716 0)
(-0.585081 -0.00541799 0)
(-0.563327 -0.00560096 0)
(-0.540824 -0.00579806 0)
(-0.51751 -0.00601215 0)
(-0.493311 -0.00624745 0)
(-0.468133 -0.00650918 0)
(-0.441859 -0.00680381 0)
(-0.414343 -0.00713974 0)
(-0.385404 -0.00752628 0)
(-0.35483 -0.00797073 0)
(-0.322388 -0.0084757 0)
(-0.287849 -0.00903649 0)
(-0.251037 -0.0096324 0)
(-0.211915 -0.010212 0)
(-0.17077 -0.0106639 0)
(-0.128549 -0.0107614 0)
(-0.0875245 -0.0100582 0)
(-0.0518474 -0.00804364 0)
(-0.0266449 -0.00473491 0)
(-0.0155108 -0.000906082 0)
(-0.0201176 0.00322835 0)
(-0.0489066 0.0113513 0)
(-0.129024 0.0292116 0)
(-0.328812 0.0711591 0)
(-0.948373 0.198979 0)
(-1.56801 -0.000325577 0)
(-1.56486 -0.00164584 0)
(-1.5627 -0.00240292 0)
(-1.55921 -0.0028058 0)
(-1.55539 -0.00304953 0)
(-1.55129 -0.00321374 0)
(-1.54705 -0.00333231 0)
(-1.54266 -0.00342545 0)
(-1.53818 -0.00350415 0)
(-1.5336 -0.00357507 0)
(-1.52894 -0.00364205 0)
(-1.5242 -0.00370721 0)
(-1.51938 -0.00377205 0)
(-1.51448 -0.00383707 0)
(-1.50951 -0.00390303 0)
(-1.50445 -0.00396989 0)
(-1.49931 -0.00403812 0)
(-1.49408 -0.00410749 0)
(-1.48877 -0.00417833 0)
(-1.48337 -0.00425032 0)
(-1.47788 -0.00432369 0)
(-1.4723 -0.0043979 0)
(-1.46663 -0.00447338 0)
(-1.46086 -0.00455051 0)
(-1.45499 -0.0046272 0)
(-1.44904 -0.00470457 0)
(-1.44299 -0.0047865 0)
(-1.43684 -0.00487103 0)
(-1.4306 -0.0049578 0)
(-1.42426 -0.00504675 0)
(-1.41781 -0.00513828 0)
(-1.41126 -0.00523245 0)
(-1.40461 -0.00532966 0)
(-1.39785 -0.00543003 0)
(-1.39098 -0.00553387 0)
(-1.38399 -0.00564121 0)
(-1.37689 -0.00575235 0)
(-1.36966 -0.00586751 0)
(-1.36231 -0.005987 0)
(-1.35484 -0.00611088 0)
(-1.34723 -0.00624002 0)
(-1.33948 -0.00637448 0)
(-1.3316 -0.00651452 0)
(-1.32356 -0.00666052 0)
(-1.31538 -0.00681267 0)
(-1.30704 -0.0069712 0)
(-1.29854 -0.00713632 0)
(-1.28986 -0.0073081 0)
(-1.281 -0.00748638 0)
(-1.27196 -0.00767166 0)
(-1.26271 -0.007863 0)
(-1.25326 -0.0080556 0)
(-1.24362 -0.00825251 0)
(-1.23379 -0.00845703 0)
(-1.22379 -0.0086674 0)
(-1.21362 -0.00888255 0)
(-1.2033 -0.00909684 0)
(-1.1928 -0.00930619 0)
(-1.18212 -0.00951282 0)
(-1.17126 -0.00972143 0)
(-1.16021 -0.00993423 0)
(-1.14898 -0.0101518 0)
(-1.13756 -0.0103754 0)
(-1.12595 -0.0106062 0)
(-1.11414 -0.0108447 0)
(-1.10213 -0.0110922 0)
(-1.08993 -0.0113496 0)
(-1.07751 -0.0116185 0)
(-1.06489 -0.0119002 0)
(-1.05205 -0.0121963 0)
(-1.03897 -0.0125079 0)
(-1.02566 -0.012837 0)
(-1.01209 -0.0131854 0)
(-0.99824 -0.0135558 0)
(-0.984093 -0.0139511 0)
(-0.969618 -0.0143752 0)
(-0.954781 -0.0148327 0)
(-0.939542 -0.0153294 0)
(-0.923853 -0.0158727 0)
(-0.907657 -0.0164735 0)
(-0.890887 -0.0171449 0)
(-0.873467 -0.017902 0)
(-0.855309 -0.0187634 0)
(-0.836319 -0.0197499 0)
(-0.816395 -0.0208776 0)
(-0.795431 -0.0221517 0)
(-0.773331 -0.0235566 0)
(-0.750045 -0.0250361 0)
(-0.725613 -0.0264583 0)
(-0.700236 -0.0275525 0)
(-0.674371 -0.0277941 0)
(-0.648787 -0.0262299 0)
(-0.624857 -0.0216331 0)
(-0.605494 -0.0134616 0)
(-0.599671 -0.000910859 0)
(-0.615002 0.0132855 0)
(-0.663523 0.0398665 0)
(-0.767678 0.0921284 0)
(-0.970741 0.204429 0)
(-1.45951 0.52648 0)
(-1.71747 -0.000891733 0)
(-1.71341 -0.00287189 0)
(-1.7121 -0.00395893 0)
(-1.70917 -0.0045647 0)
(-1.70593 -0.00493798 0)
(-1.70248 -0.00518971 0)
(-1.6989 -0.00537039 0)
(-1.69523 -0.0055118 0)
(-1.69146 -0.00563027 0)
(-1.68765 -0.00573677 0)
(-1.68376 -0.00583671 0)
(-1.67983 -0.00593392 0)
(-1.67583 -0.00603033 0)
(-1.67179 -0.00612718 0)
(-1.66768 -0.00622533 0)
(-1.66354 -0.0063251 0)
(-1.65932 -0.00642699 0)
(-1.65506 -0.00653095 0)
(-1.65073 -0.00663736 0)
(-1.64635 -0.00674605 0)
(-1.6419 -0.0068573 0)
(-1.63739 -0.00697059 0)
(-1.63279 -0.00708628 0)
(-1.62813 -0.00720533 0)
(-1.62338 -0.00732483 0)
(-1.61857 -0.00744396 0)
(-1.61367 -0.00756607 0)
(-1.6087 -0.00768969 0)
(-1.60367 -0.00781532 0)
(-1.59858 -0.00794343 0)
(-1.59343 -0.00807458 0)
(-1.58822 -0.00820897 0)
(-1.58294 -0.00834702 0)
(-1.57761 -0.00848894 0)
(-1.57221 -0.00863504 0)
(-1.56675 -0.00878542 0)
(-1.56123 -0.0089403 0)
(-1.55565 -0.00910009 0)
(-1.55001 -0.00926525 0)
(-1.54431 -0.00943523 0)
(-1.53856 -0.00961113 0)
(-1.53274 -0.0097932 0)
(-1.52687 -0.00998158 0)
(-1.52095 -0.0101769 0)
(-1.51497 -0.0103792 0)
(-1.50895 -0.010589 0)
(-1.50288 -0.0108064 0)
(-1.49676 -0.0110317 0)
(-1.49061 -0.0112649 0)
(-1.48441 -0.0115059 0)
(-1.47819 -0.0117539 0)
(-1.47193 -0.0120047 0)
(-1.46567 -0.012256 0)
(-1.45938 -0.0125068 0)
(-1.45308 -0.0127574 0)
(-1.44678 -0.0130095 0)
(-1.4405 -0.0132642 0)
(-1.43422 -0.0135181 0)
(-1.42794 -0.0137696 0)
(-1.42167 -0.0140216 0)
(-1.41541 -0.0142759 0)
(-1.40917 -0.0145336 0)
(-1.40297 -0.0147953 0)
(-1.39681 -0.0150615 0)
(-1.39071 -0.0153328 0)
(-1.38468 -0.01561 0)
(-1.37874 -0.0158941 0)
(-1.37291 -0.0161861 0)
(-1.3672 -0.0164875 0)
(-1.36164 -0.0168002 0)
(-1.35624 -0.0171259 0)
(-1.35103 -0.0174673 0)
(-1.34603 -0.0178268 0)
(-1.34126 -0.0182084 0)
(-1.33674 -0.0186169 0)
(-1.33248 -0.0190579 0)
(-1.32849 -0.019539 0)
(-1.32478 -0.0200688 0)
(-1.32136 -0.020658 0)
(-1.31821 -0.0213222 0)
(-1.31532 -0.0220793 0)
(-1.31268 -0.0229485 0)
(-1.31023 -0.0239521 0)
(-1.30797 -0.0251132 0)
(-1.30584 -0.02645 0)
(-1.30381 -0.0279669 0)
(-1.30185 -0.0296379 0)
(-1.29997 -0.0313805 0)
(-1.29823 -0.0330151 0)
(-1.29676 -0.0341943 0)
(-1.29582 -0.0342916 0)
(-1.29574 -0.0322626 0)
(-1.29705 -0.0266193 0)
(-1.30123 -0.0158697 0)
(-1.31026 0.0023068 0)
(-1.32743 0.0264258 0)
(-1.36695 0.0696768 0)
(-1.44328 0.149777 0)
(-1.58729 0.311588 0)
(-1.85834 0.719487 0)
(-1.85205 -0.00155207 0)
(-1.84772 -0.00386885 0)
(-1.84743 -0.00519261 0)
(-1.8454 -0.00595873 0)
(-1.84313 -0.00643537 0)
(-1.84072 -0.00675468 0)
(-1.83821 -0.00698073 0)
(-1.83564 -0.00715544 0)
(-1.83301 -0.00729913 0)
(-1.83037 -0.00742698 0)
(-1.82768 -0.00754524 0)
(-1.82499 -0.00765971 0)
(-1.82227 -0.00777219 0)
(-1.81955 -0.00788503 0)
(-1.81679 -0.00799873 0)
(-1.81404 -0.00811434 0)
(-1.81126 -0.00823198 0)
(-1.80849 -0.00835214 0)
(-1.80569 -0.00847491 0)
(-1.8029 -0.00860055 0)
(-1.80008 -0.00872931 0)
(-1.79726 -0.00886079 0)
(-1.79443 -0.00899534 0)
(-1.7916 -0.00913309 0)
(-1.78875 -0.00927322 0)
(-1.78592 -0.00941417 0)
(-1.78307 -0.0095546 0)
(-1.78021 -0.00969431 0)
(-1.77735 -0.00983475 0)
(-1.77449 -0.00997694 0)
(-1.77163 -0.0101215 0)
(-1.76878 -0.0102687 0)
(-1.76593 -0.0104188 0)
(-1.7631 -0.0105721 0)
(-1.76028 -0.0107287 0)
(-1.75748 -0.0108886 0)
(-1.7547 -0.0110517 0)
(-1.75195 -0.0112184 0)
(-1.74923 -0.0113892 0)
(-1.74654 -0.0115633 0)
(-1.7439 -0.0117414 0)
(-1.74131 -0.0119235 0)
(-1.73878 -0.0121096 0)
(-1.73631 -0.0122998 0)
(-1.73392 -0.0124943 0)
(-1.73161 -0.0126928 0)
(-1.7294 -0.0128954 0)
(-1.7273 -0.0131019 0)
(-1.72532 -0.0133119 0)
(-1.72347 -0.0135245 0)
(-1.72178 -0.0137377 0)
(-1.72025 -0.0139517 0)
(-1.71891 -0.0141673 0)
(-1.71771 -0.0143809 0)
(-1.71668 -0.0145905 0)
(-1.71581 -0.0147975 0)
(-1.71511 -0.0150044 0)
(-1.71459 -0.0152092 0)
(-1.71428 -0.0154085 0)
(-1.71417 -0.015603 0)
(-1.71428 -0.0157934 0)
(-1.71464 -0.0159802 0)
(-1.71526 -0.0161639 0)
(-1.71615 -0.0163447 0)
(-1.71734 -0.0165228 0)
(-1.71884 -0.0166987 0)
(-1.72066 -0.016873 0)
(-1.72283 -0.0170465 0)
(-1.72536 -0.0172207 0)
(-1.72826 -0.0173975 0)
(-1.73155 -0.0175793 0)
(-1.73523 -0.0177696 0)
(-1.73931 -0.0179719 0)
(-1.74379 -0.0181918 0)
(-1.74866 -0.018436 0)
(-1.75393 -0.0187127 0)
(-1.75956 -0.0190326 0)
(-1.76553 -0.0194078 0)
(-1.7718 -0.0198518 0)
(-1.77835 -0.0203846 0)
(-1.78511 -0.0210289 0)
(-1.79204 -0.0218065 0)
(-1.79907 -0.0227413 0)
(-1.80615 -0.0238565 0)
(-1.81323 -0.0251685 0)
(-1.82026 -0.0266776 0)
(-1.82723 -0.0283477 0)
(-1.83414 -0.0300775 0)
(-1.84104 -0.0316584 0)
(-1.84801 -0.0327095 0)
(-1.85516 -0.0325811 0)
(-1.86249 -0.0302433 0)
(-1.86999 -0.0241514 0)
(-1.87819 -0.0124375 0)
(-1.88751 0.00665896 0)
(-1.8988 0.0365711 0)
(-1.9216 0.0894501 0)
(-1.963 0.186044 0)
(-2.03236 0.375533 0)
(-2.13333 0.778257 0)
(-1.98719 -0.0021245 0)
(-1.98322 -0.00450522 0)
(-1.98409 -0.00593446 0)
(-1.98329 -0.00679353 0)
(-1.98246 -0.00733374 0)
(-1.98152 -0.00769039 0)
(-1.98059 -0.0079386 0)
(-1.97962 -0.00812489 0)
(-1.97868 -0.00827425 0)
(-1.97774 -0.00840341 0)
(-1.97683 -0.00852043 0)
(-1.97594 -0.00863152 0)
(-1.97508 -0.00873922 0)
(-1.97426 -0.00884592 0)
(-1.97347 -0.00895239 0)
(-1.97273 -0.0090596 0)
(-1.97203 -0.00916774 0)
(-1.97139 -0.00927719 0)
(-1.97078 -0.00938801 0)
(-1.97025 -0.00950039 0)
(-1.96977 -0.00961464 0)
(-1.96936 -0.00972995 0)
(-1.96902 -0.00984626 0)
(-1.96876 -0.00996277 0)
(-1.96858 -0.0100807 0)
(-1.96851 -0.0102016 0)
(-1.96851 -0.0103229 0)
(-1.96859 -0.010443 0)
(-1.96875 -0.0105624 0)
(-1.96899 -0.010682 0)
(-1.96932 -0.0108022 0)
(-1.96974 -0.0109232 0)
(-1.97025 -0.0110452 0)
(-1.97087 -0.0111683 0)
(-1.97159 -0.0112924 0)
(-1.97242 -0.0114174 0)
(-1.97337 -0.0115431 0)
(-1.97444 -0.0116695 0)
(-1.97564 -0.0117967 0)
(-1.97698 -0.0119244 0)
(-1.97846 -0.012053 0)
(-1.98009 -0.0121819 0)
(-1.98188 -0.0123109 0)
(-1.98383 -0.0124401 0)
(-1.98596 -0.0125693 0)
(-1.98826 -0.012698 0)
(-1.99075 -0.0128262 0)
(-1.99343 -0.0129535 0)
(-1.9963 -0.0130792 0)
(-1.99938 -0.0132024 0)
(-2.00267 -0.0133217 0)
(-2.00616 -0.0134385 0)
(-2.00986 -0.0135566 0)
(-2.01379 -0.0136735 0)
(-2.01793 -0.013786 0)
(-2.0223 -0.0138939 0)
(-2.02689 -0.0139975 0)
(-2.03171 -0.0140947 0)
(-2.03677 -0.014183 0)
(-2.04206 -0.0142626 0)
(-2.04758 -0.0143341 0)
(-2.05334 -0.0143978 0)
(-2.05933 -0.0144548 0)
(-2.06555 -0.0145056 0)
(-2.072 -0.0145508 0)
(-2.07867 -0.0145912 0)
(-2.08555 -0.0146278 0)
(-2.09264 -0.014662 0)
(-2.09992 -0.0146958 0)
(-2.10739 -0.0147316 0)
(-2.11503 -0.0147727 0)
(-2.12284 -0.0148235 0)
(-2.1308 -0.0148888 0)
(-2.1389 -0.0149755 0)
(-2.14712 -0.0150918 0)
(-2.15546 -0.0152476 0)
(-2.1639 -0.0154552 0)
(-2.17243 -0.0157303 0)
(-2.18103 -0.0160858 0)
(-2.18969 -0.016544 0)
(-2.19841 -0.0171318 0)
(-2.20715 -0.0178703 0)
(-2.21592 -0.0187832 0)
(-2.2247 -0.0198917 0)
(-2.23349 -0.0212085 0)
(-2.2423 -0.0227281 0)
(-2.25113 -0.0244079 0)
(-2.26001 -0.0261357 0)
(-2.26893 -0.0276927 0)
(-2.2779 -0.0286994 0)
(-2.28684 -0.0285355 0)
(-2.29549 -0.026259 0)
(-2.3033 -0.0204197 0)
(-2.31042 -0.00922985 0)
(-2.3157 0.00948566 0)
(-2.31857 0.0411204 0)
(-2.32327 0.0974109 0)
(-2.3294 0.199555 0)
(-2.32753 0.392934 0)
(-2.31004 0.744661 0)
(-2.1296 -0.0024419 0)
(-2.12671 -0.00465626 0)
(-2.12877 -0.00603427 0)
(-2.12954 -0.00688622 0)
(-2.13047 -0.00742482 0)
(-2.13142 -0.00777272 0)
(-2.13248 -0.00800823 0)
(-2.13357 -0.00817635 0)
(-2.13475 -0.00830506 0)
(-2.13599 -0.00841024 0)
(-2.13731 -0.00850166 0)
(-2.13871 -0.00858475 0)
(-2.14018 -0.00866306 0)
(-2.14175 -0.00873833 0)
(-2.14339 -0.0088119 0)
(-2.14514 -0.00888422 0)
(-2.14697 -0.00895579 0)
(-2.14891 -0.00902657 0)
(-2.15094 -0.00909676 0)
(-2.15309 -0.00916624 0)
(-2.15534 -0.00923572 0)
(-2.15771 -0.00930401 0)
(-2.1602 -0.00936967 0)
(-2.1628 -0.00943353 0)
(-2.16554 -0.00949772 0)
(-2.16839 -0.00956419 0)
(-2.17137 -0.0096321 0)
(-2.17449 -0.00969876 0)
(-2.17773 -0.00976375 0)
(-2.18111 -0.00982732 0)
(-2.18463 -0.00988986 0)
(-2.18829 -0.00995148 0)
(-2.19208 -0.0100124 0)
(-2.19602 -0.0100726 0)
(-2.20011 -0.0101321 0)
(-2.20434 -0.0101907 0)
(-2.20871 -0.0102482 0)
(-2.21324 -0.010305 0)
(-2.21791 -0.0103606 0)
(-2.22273 -0.0104149 0)
(-2.2277 -0.0104686 0)
(-2.23282 -0.010521 0)
(-2.23808 -0.0105722 0)
(-2.24349 -0.0106222 0)
(-2.24904 -0.010671 0)
(-2.25473 -0.0107184 0)
(-2.26055 -0.0107643 0)
(-2.26651 -0.0108087 0)
(-2.2726 -0.0108512 0)
(-2.27881 -0.0108913 0)
(-2.28514 -0.0109287 0)
(-2.29158 -0.0109641 0)
(-2.29813 -0.0109998 0)
(-2.30478 -0.0110342 0)
(-2.31154 -0.0110661 0)
(-2.31838 -0.0110955 0)
(-2.32531 -0.0111213 0)
(-2.33231 -0.0111411 0)
(-2.33938 -0.0111527 0)
(-2.34652 -0.0111567 0)
(-2.35371 -0.0111537 0)
(-2.36096 -0.0111449 0)
(-2.36827 -0.0111311 0)
(-2.37561 -0.0111129 0)
(-2.383 -0.0110916 0)
(-2.39042 -0.0110676 0)
(-2.39788 -0.0110424 0)
(-2.40538 -0.0110173 0)
(-2.4129 -0.0109944 0)
(-2.42046 -0.0109762 0)
(-2.42805 -0.0109661 0)
(-2.43568 -0.0109681 0)
(-2.44334 -0.0109872 0)
(-2.45103 -0.0110302 0)
(-2.45877 -0.0111054 0)
(-2.46656 -0.0112227 0)
(-2.47438 -0.0113941 0)
(-2.48226 -0.011636 0)
(-2.49019 -0.0119605 0)
(-2.49819 -0.0123873 0)
(-2.50626 -0.0129432 0)
(-2.51443 -0.0136499 0)
(-2.5227 -0.0145307 0)
(-2.53108 -0.0156052 0)
(-2.5396 -0.0168832 0)
(-2.54826 -0.0183577 0)
(-2.55709 -0.0199875 0)
(-2.56607 -0.0216624 0)
(-2.57518 -0.0231714 0)
(-2.58434 -0.0241655 0)
(-2.59333 -0.0240931 0)
(-2.60172 -0.0221388 0)
(-2.6086 -0.0171065 0)
(-2.61382 -0.00731603 0)
(-2.61503 0.00983089 0)
(-2.60993 0.0399935 0)
(-2.59837 0.0940174 0)
(-2.57288 0.191804 0)
(-2.51144 0.369225 0)
(-2.41539 0.652874 0)
(-2.27644 -0.00239628 0)
(-2.27485 -0.00423482 0)
(-2.27808 -0.00540887 0)
(-2.28045 -0.00614827 0)
(-2.28306 -0.00661278 0)
(-2.28588 -0.00690322 0)
(-2.28882 -0.00709013 0)
(-2.2919 -0.00721275 0)
(-2.29506 -0.00729771 0)
(-2.29834 -0.00735925 0)
(-2.3017 -0.0074069 0)
(-2.30518 -0.00744541 0)
(-2.30873 -0.00747851 0)
(-2.31241 -0.0075076 0)
(-2.31616 -0.00753425 0)
(-2.32002 -0.00755866 0)
(-2.32396 -0.00758158 0)
(-2.32802 -0.00760277 0)
(-2.33216 -0.00762266 0)
(-2.33641 -0.00764101 0)
(-2.34074 -0.00765888 0)
(-2.34517 -0.0076752 0)
(-2.34969 -0.00768719 0)
(-2.35432 -0.00769567 0)
(-2.35904 -0.00770333 0)
(-2.36387 -0.00771123 0)
(-2.3688 -0.00771935 0)
(-2.37384 -0.00772618 0)
(-2.37898 -0.00773141 0)
(-2.38424 -0.00773511 0)
(-2.38959 -0.0077378 0)
(-2.39505 -0.00773956 0)
(-2.4006 -0.007741 0)
(-2.40625 -0.00774206 0)
(-2.41198 -0.0077431 0)
(-2.41781 -0.00774382 0)
(-2.42371 -0.00774465 0)
(-2.4297 -0.00774553 0)
(-2.43575 -0.00774673 0)
(-2.44188 -0.00774794 0)
(-2.44806 -0.00774986 0)
(-2.4543 -0.00775234 0)
(-2.4606 -0.00775541 0)
(-2.46693 -0.00775921 0)
(-2.47331 -0.00776389 0)
(-2.47972 -0.00776931 0)
(-2.48616 -0.00777542 0)
(-2.49262 -0.0077821 0)
(-2.4991 -0.00778948 0)
(-2.50559 -0.00779677 0)
(-2.51209 -0.00780409 0)
(-2.51859 -0.00781157 0)
(-2.52509 -0.00782058 0)
(-2.53159 -0.00782994 0)
(-2.53809 -0.00783942 0)
(-2.54458 -0.00784978 0)
(-2.55105 -0.00785927 0)
(-2.55752 -0.007864 0)
(-2.56396 -0.00786131 0)
(-2.5704 -0.00785161 0)
(-2.57683 -0.00783578 0)
(-2.58325 -0.00781482 0)
(-2.58966 -0.00778915 0)
(-2.59608 -0.00775911 0)
(-2.60249 -0.00772562 0)
(-2.60891 -0.00768887 0)
(-2.61534 -0.0076497 0)
(-2.6218 -0.00760937 0)
(-2.62827 -0.00756943 0)
(-2.63478 -0.00753214 0)
(-2.64133 -0.00750046 0)
(-2.64793 -0.00747808 0)
(-2.65459 -0.00746975 0)
(-2.66132 -0.00748173 0)
(-2.66813 -0.00752259 0)
(-2.67503 -0.00760206 0)
(-2.68204 -0.00773165 0)
(-2.68916 -0.00792548 0)
(-2.6964 -0.00819868 0)
(-2.70383 -0.00857082 0)
(-2.71138 -0.00906422 0)
(-2.7191 -0.00970065 0)
(-2.727 -0.0105029 0)
(-2.7351 -0.0114897 0)
(-2.74344 -0.0126697 0)
(-2.75203 -0.0140363 0)
(-2.76088 -0.0155576 0)
(-2.76997 -0.0171357 0)
(-2.77923 -0.0185774 0)
(-2.78851 -0.019585 0)
(-2.79751 -0.019701 0)
(-2.80563 -0.0182623 0)
(-2.81176 -0.0143969 0)
(-2.81522 -0.00658474 0)
(-2.81322 0.00781673 0)
(-2.80116 0.033869 0)
(-2.77551 0.0807662 0)
(-2.72323 0.165476 0)
(-2.61572 0.31318 0)
(-2.46996 0.525982 0)
(-2.40952 -0.00200221 0)
(-2.40893 -0.00330323 0)
(-2.41291 -0.00417368 0)
(-2.41635 -0.00472633 0)
(-2.42 -0.00506739 0)
(-2.42401 -0.00527109 0)
(-2.42806 -0.00539167 0)
(-2.43234 -0.00545998 0)
(-2.43662 -0.0054971 0)
(-2.44106 -0.00551469 0)
(-2.4455 -0.00552048 0)
(-2.45007 -0.00551843 0)
(-2.45465 -0.00551167 0)
(-2.45934 -0.00550143 0)
(-2.46404 -0.00548916 0)
(-2.46885 -0.00547506 0)
(-2.47367 -0.00545988 0)
(-2.47859 -0.00544343 0)
(-2.48352 -0.00542623 0)
(-2.48854 -0.00540803 0)
(-2.49358 -0.00538919 0)
(-2.4987 -0.00536902 0)
(-2.50385 -0.00534687 0)
(-2.50908 -0.00532205 0)
(-2.51431 -0.00529579 0)
(-2.5196 -0.00526924 0)
(-2.52489 -0.00524327 0)
(-2.53024 -0.00521716 0)
(-2.53559 -0.00519095 0)
(-2.54099 -0.00516456 0)
(-2.54638 -0.00513886 0)
(-2.5518 -0.00511358 0)
(-2.55722 -0.00508984 0)
(-2.56266 -0.00506732 0)
(-2.56809 -0.00504681 0)
(-2.57354 -0.00502762 0)
(-2.57897 -0.00501071 0)
(-2.58441 -0.00499535 0)
(-2.58983 -0.00498249 0)
(-2.59525 -0.00497169 0)
(-2.60065 -0.00496334 0)
(-2.60605 -0.00495729 0)
(-2.61143 -0.00495356 0)
(-2.6168 -0.00495219 0)
(-2.62215 -0.0049532 0)
(-2.6275 -0.00495636 0)
(-2.63282 -0.00496141 0)
(-2.63813 -0.00496805 0)
(-2.64343 -0.00497641 0)
(-2.64873 -0.00498557 0)
(-2.65401 -0.00499566 0)
(-2.65929 -0.00500611 0)
(-2.66456 -0.00501767 0)
(-2.66983 -0.00502911 0)
(-2.67511 -0.00504041 0)
(-2.6804 -0.00505366 0)
(-2.68569 -0.0050669 0)
(-2.69099 -0.0050743 0)
(-2.69631 -0.00507175 0)
(-2.70165 -0.0050601 0)
(-2.70702 -0.00504065 0)
(-2.71243 -0.00501426 0)
(-2.71787 -0.00498115 0)
(-2.72335 -0.00494136 0)
(-2.72888 -0.00489519 0)
(-2.73447 -0.00484278 0)
(-2.74012 -0.00478464 0)
(-2.74583 -0.00472157 0)
(-2.75163 -0.00465485 0)
(-2.75751 -0.00458643 0)
(-2.76349 -0.00451887 0)
(-2.76957 -0.00445559 0)
(-2.77576 -0.00440124 0)
(-2.78209 -0.00436118 0)
(-2.78855 -0.00434428 0)
(-2.79516 -0.00435996 0)
(-2.80194 -0.00441909 0)
(-2.8089 -0.00453307 0)
(-2.81604 -0.00471977 0)
(-2.82341 -0.00500181 0)
(-2.83098 -0.00539942 0)
(-2.8388 -0.00593053 0)
(-2.84687 -0.00661593 0)
(-2.85522 -0.00747433 0)
(-2.86387 -0.00851454 0)
(-2.87284 -0.00973037 0)
(-2.88213 -0.011107 0)
(-2.89169 -0.0125722 0)
(-2.9014 -0.0139509 0)
(-2.91107 -0.0150136 0)
(-2.92029 -0.0154139 0)
(-2.92838 -0.0146635 0)
(-2.93415 -0.0121808 0)
(-2.93614 -0.00681653 0)
(-2.93197 0.00373736 0)
(-2.91429 0.023538 0)
(-2.87754 0.0593244 0)
(-2.80452 0.124003 0)
(-2.66445 0.233505 0)
(-2.48905 0.379095 0)
(-2.51047 -0.00130745 0)
(-2.51077 -0.00205633 0)
(-2.51491 -0.00258911 0)
(-2.51878 -0.00292541 0)
(-2.52275 -0.00312766 0)
(-2.52718 -0.00324281 0)
(-2.53152 -0.0033038 0)
(-2.53614 -0.00333108 0)
(-2.54062 -0.00333779 0)
(-2.5453 -0.00333147 0)
(-2.54982 -0.00331734 0)
(-2.55451 -0.00329798 0)
(-2.55905 -0.00327552 0)
(-2.56372 -0.00325087 0)
(-2.56826 -0.00322501 0)
(-2.57292 -0.00319817 0)
(-2.57745 -0.00317084 0)
(-2.58208 -0.00314296 0)
(-2.58659 -0.00311488 0)
(-2.5912 -0.0030864 0)
(-2.59569 -0.00305693 0)
(-2.60026 -0.00302634 0)
(-2.60473 -0.00299731 0)
(-2.60927 -0.0029698 0)
(-2.6137 -0.00294286 0)
(-2.61817 -0.00291649 0)
(-2.62253 -0.00289147 0)
(-2.62694 -0.0028673 0)
(-2.63125 -0.00284415 0)
(-2.63559 -0.0028218 0)
(-2.63984 -0.00280117 0)
(-2.64411 -0.00278176 0)
(-2.64831 -0.00276465 0)
(-2.65252 -0.00274937 0)
(-2.65666 -0.00273673 0)
(-2.66081 -0.00272581 0)
(-2.66491 -0.00271754 0)
(-2.66901 -0.0027108 0)
(-2.67307 -0.00270688 0)
(-2.67713 -0.00270482 0)
(-2.68116 -0.0027051 0)
(-2.68519 -0.00270735 0)
(-2.6892 -0.0027113 0)
(-2.69322 -0.00271718 0)
(-2.69723 -0.00272465 0)
(-2.70125 -0.00273343 0)
(-2.70526 -0.00274315 0)
(-2.70929 -0.0027536 0)
(-2.71333 -0.00276421 0)
(-2.71738 -0.00277461 0)
(-2.72146 -0.00278446 0)
(-2.72556 -0.00279341 0)
(-2.72969 -0.00280124 0)
(-2.73385 -0.00280671 0)
(-2.73806 -0.00280956 0)
(-2.74231 -0.00281416 0)
(-2.7466 -0.00281952 0)
(-2.75093 -0.00281698 0)
(-2.75532 -0.00279987 0)
(-2.75977 -0.00277041 0)
(-2.76429 -0.00273099 0)
(-2.76888 -0.00268248 0)
(-2.77354 -0.00262501 0)
(-2.77829 -0.0025584 0)
(-2.78313 -0.00248238 0)
(-2.78805 -0.00239701 0)
(-2.79308 -0.00230262 0)
(-2.79822 -0.00219967 0)
(-2.80347 -0.00208911 0)
(-2.80884 -0.00197257 0)
(-2.81435 -0.00185232 0)
(-2.82 -0.00173141 0)
(-2.82581 -0.00161427 0)
(-2.83177 -0.00150592 0)
(-2.83792 -0.00141465 0)
(-2.84425 -0.00134841 0)
(-2.85079 -0.00131946 0)
(-2.85755 -0.00133798 0)
(-2.86455 -0.00142154 0)
(-2.87182 -0.00159053 0)
(-2.87936 -0.00186702 0)
(-2.8872 -0.00226615 0)
(-2.89538 -0.00280766 0)
(-2.90391 -0.00351004 0)
(-2.91284 -0.00438575 0)
(-2.92217 -0.00542578 0)
(-2.93191 -0.0066359 0)
(-2.94197 -0.00799632 0)
(-2.95224 -0.00933013 0)
(-2.96248 -0.0104967 0)
(-2.97226 -0.011268 0)
(-2.98083 -0.0113478 0)
(-2.98698 -0.0103875 0)
(-2.9888 -0.00777229 0)
(-2.98375 -0.00188712 0)
(-2.96428 0.00994928 0)
(-2.92069 0.0317285 0)
(-2.83505 0.0713744 0)
(-2.6757 0.137582 0)
(-2.48529 0.221173 0)
(-2.55917 -0.0003942 0)
(-2.5598 -0.000685836 0)
(-2.56378 -0.00088635 0)
(-2.56759 -0.00100836 0)
(-2.57144 -0.00108088 0)
(-2.57575 -0.00112247 0)
(-2.57988 -0.00114404 0)
(-2.58431 -0.00115317 0)
(-2.58849 -0.00115476 0)
(-2.59288 -0.00115094 0)
(-2.59701 -0.0011442 0)
(-2.60131 -0.00113517 0)
(-2.60536 -0.00112477 0)
(-2.60955 -0.00111351 0)
(-2.61351 -0.00110166 0)
(-2.61758 -0.00108938 0)
(-2.62145 -0.00107677 0)
(-2.62541 -0.00106388 0)
(-2.62918 -0.00105075 0)
(-2.63304 -0.00103728 0)
(-2.63672 -0.00102279 0)
(-2.64047 -0.00100779 -1.18465e-41)
(-2.64406 -0.000994962 0)
(-2.64772 -0.000984914 0)
(-2.65123 -0.00097615 0)
(-2.6548 -0.000968097 0)
(-2.65823 -0.000960863 0)
(-2.66173 -0.00095407 0)
(-2.6651 -0.000947562 0)
(-2.66853 -0.000941409 0)
(-2.67185 -0.000935966 0)
(-2.67522 -0.000931403 0)
(-2.6785 -0.000927978 0)
(-2.68183 -0.000925657 0)
(-2.68508 -0.000924539 0)
(-2.68837 -0.000924512 0)
(-2.69161 -0.000925449 0)
(-2.69487 -0.000927006 0)
(-2.69811 -0.000929988 0)
(-2.70136 -0.000933334 0)
(-2.70461 -0.000937628 0)
(-2.70786 -0.000942436 0)
(-2.71112 -0.000947373 0)
(-2.7144 -0.00095264 0)
(-2.71769 -0.000957898 0)
(-2.721 -0.000962777 0)
(-2.72433 -0.000966958 0)
(-2.72768 -0.000970351 0)
(-2.73106 -0.000971861 0)
(-2.73448 -0.000971523 0)
(-2.73793 -0.000968753 0)
(-2.74142 -0.000963514 0)
(-2.74495 -0.000954897 0)
(-2.74852 -0.000941753 0)
(-2.75216 -0.000922179 0)
(-2.75584 -0.000904233 0)
(-2.75958 -0.000889633 0)
(-2.76337 -0.000866187 0)
(-2.76722 -0.000821244 0)
(-2.77114 -0.000760575 0)
(-2.77514 -0.000688455 0)
(-2.77922 -0.000605644 0)
(-2.78338 -0.000511923 0)
(-2.78763 -0.000406728 0)
(-2.79197 -0.000289651 0)
(-2.79641 -0.000160525 0)
(-2.80096 -1.94111e-05 0)
(-2.80562 0.000133489 0)
(-2.8104 0.000297457 0)
(-2.81531 0.000471212 0)
(-2.82035 0.00065283 0)
(-2.82555 0.000839646 0)
(-2.8309 0.00102777 0)
(-2.83642 0.0012116 0)
(-2.84213 0.00138516 0)
(-2.84802 0.00154173 0)
(-2.85414 0.00166801 0)
(-2.86049 0.0017539 0)
(-2.86708 0.00178265 0)
(-2.87396 0.00173722 0)
(-2.88113 0.00159779 0)
(-2.88862 0.00134849 0)
(-2.89646 0.000969385 1.13951e-41)
(-2.90467 0.000442291 0)
(-2.91329 -0.000247754 0)
(-2.92231 -0.00110408 0)
(-2.9318 -0.00211682 0)
(-2.94149 -0.00338451 -3.97847e-41)
(-2.9514 -0.004675 0)
(-2.96129 -0.00596964 0)
(-2.9707 -0.00715788 0)
(-2.97889 -0.00812568 0)
(-2.98467 -0.00878049 0)
(-2.98611 -0.0089893 -5.28344e-41)
(-2.97996 -0.00814874 0)
(-2.96017 -0.00530766 0)
(-2.9146 0.000738483 8.68083e-42)
(-2.82453 0.0123862 0)
(-2.65841 0.0322395 0)
(-2.46325 0.0573738 0)
(-2.53781 0.000573299 0)
(-2.53822 0.00070682 0)
(-2.54219 0.000838959 0)
(-2.54598 0.000927256 0)
(-2.5498 0.000977899 0)
(-2.55411 0.00100243 0)
(-2.55825 0.00101119 0)
(-2.5627 0.00101058 0)
(-2.56691 0.00100418 0)
(-2.57134 0.000994958 0)
(-2.57553 0.000983794 0)
(-2.57989 0.000971701 0)
(-2.58402 0.000959398 0)
(-2.58828 0.00094668 0)
(-2.59234 0.000934179 0)
(-2.5965 0.000921745 0)
(-2.60047 0.000909801 0)
(-2.60453 0.000898193 0)
(-2.60842 0.000887272 0)
(-2.61238 0.000877013 0)
(-2.61618 0.000867958 0)
(-2.62005 0.000859303 1.01011e-41)
(-2.62377 0.00084974 0)
(-2.62755 0.00083872 0)
(-2.63118 0.00082744 0)
(-2.63488 0.000816136 0)
(-2.63844 0.000805101 0)
(-2.64206 0.000794658 0)
(-2.64556 0.000785383 0)
(-2.64911 0.000776811 0)
(-2.65255 0.000769112 0)
(-2.65604 0.000761348 0)
(-2.65943 0.000754033 0)
(-2.66286 0.000746726 0)
(-2.66622 0.000739994 0)
(-2.66961 0.000733136 0)
(-2.67294 0.000727178 0)
(-2.6763 0.000721391 0)
(-2.67961 0.00071639 0)
(-2.68294 0.000711985 0)
(-2.68625 0.000708513 0)
(-2.68957 0.000706009 0)
(-2.69288 0.000704649 0)
(-2.6962 0.000704796 0)
(-2.69953 0.000706533 0)
(-2.70287 0.000710287 0)
(-2.70622 0.000716352 0)
(-2.70959 0.000724965 0)
(-2.71298 0.000737007 0)
(-2.71639 0.00075262 0)
(-2.71983 0.00077226 0)
(-2.7233 0.000796203 0)
(-2.7268 0.000825338 0)
(-2.73034 0.000860675 0)
(-2.73392 0.000904055 0)
(-2.73754 0.000947596 0)
(-2.7412 0.000989892 0)
(-2.74493 0.00104316 0)
(-2.74871 0.00111992 0)
(-2.75255 0.00121416 0)
(-2.75646 0.00132183 0)
(-2.76042 0.00144232 0)
(-2.76446 0.00157605 0)
(-2.76857 0.0017238 0)
(-2.77276 0.00188603 0)
(-2.77704 0.00206311 0)
(-2.7814 0.00225529 0)
(-2.78586 0.00246274 0)
(-2.79043 0.00268498 0)
(-2.79511 0.00292104 0)
(-2.7999 0.0031695 0)
(-2.80483 0.00342816 0)
(-2.80989 0.00369365 0)
(-2.81511 0.00396075 0)
(-2.82048 0.00422493 0)
(-2.82603 0.00447948 0)
(-2.83177 0.00471308 0)
(-2.83772 0.00491479 0)
(-2.84389 0.00506939 0)
(-2.85031 0.00516108 0)
(-2.85699 0.00517395 0)
(-2.86397 0.00509063 0)
(-2.87127 0.0048911 5.74946e-41)
(-2.87891 0.00455733 0)
(-2.8869 0.00407263 0)
(-2.89525 0.00341406 0)
(-2.90396 0.00258751 0)
(-2.91286 0.00147339 1.73197e-41)
(-2.92192 0.000233788 0)
(-2.93079 -0.00119398 0)
(-2.93899 -0.00278924 0)
(-2.94565 -0.00459023 0)
(-2.9499 -0.00680752 0)
(-2.9497 -0.00974126 -5.7254e-41)
(-2.94174 -0.0137987 0)
(-2.92001 -0.0198046 0)
(-2.87356 -0.0295571 -3.47442e-40)
(-2.78304 -0.0460317 0)
(-2.61819 -0.072342 0)
(-2.4244 -0.10351 0)
(-2.45874 0.00141116 0)
(-2.45835 0.00208311 0)
(-2.4624 0.00256404 0)
(-2.46605 0.00287252 0)
(-2.46982 0.00305729 0)
(-2.47406 0.00316034 0)
(-2.47824 0.00321366 0)
(-2.4827 0.00323605 0)
(-2.48705 0.00324042 0)
(-2.4916 0.00323327 0)
(-2.49603 0.00321983 0)
(-2.50061 0.00320177 0)
(-2.50509 0.00318159 0)
(-2.50969 0.00315953 0)
(-2.51419 0.00313676 0)
(-2.51879 0.00311326 0)
(-2.5233 0.00308976 0)
(-2.5279 0.00306611 0)
(-2.53241 0.00304285 0)
(-2.537 0.00301986 0)
(-2.5415 0.00299759 0)
(-2.54607 0.0029753 0)
(-2.55056 0.00295246 0)
(-2.5551 0.00292853 0)
(-2.55956 0.00290443 0)
(-2.56407 0.00288017 0)
(-2.5685 0.00285622 0)
(-2.57297 0.00283304 0)
(-2.57737 0.0028115 0)
(-2.5818 0.00279112 0)
(-2.58616 0.00277196 0)
(-2.59054 0.00275316 0)
(-2.59485 0.00273531 0)
(-2.59918 0.00271806 0)
(-2.60345 0.00270206 0)
(-2.60773 0.00268675 0)
(-2.61195 0.00267302 0)
(-2.61618 0.00266009 0)
(-2.62036 0.00264945 0)
(-2.62454 0.00263978 0)
(-2.62868 0.00263251 0)
(-2.63281 0.00262724 0)
(-2.63691 0.00262415 0)
(-2.64101 0.002624 0)
(-2.64508 0.00262687 0)
(-2.64915 0.00263318 0)
(-2.6532 0.00264334 0)
(-2.65725 0.00265777 0)
(-2.66128 0.0026771 0)
(-2.66532 0.00270175 0)
(-2.66936 0.0027321 0)
(-2.67341 0.00276854 0)
(-2.67746 0.00281188 0)
(-2.68152 0.00286311 0)
(-2.6856 0.00292232 0)
(-2.6897 0.00298558 0)
(-2.69382 0.00305423 0)
(-2.69799 0.00313697 0)
(-2.70218 0.00324027 0)
(-2.70641 0.00336135 0)
(-2.71067 0.00349839 0)
(-2.71498 0.00365125 0)
(-2.71933 0.00382023 0)
(-2.72373 0.00400605 0)
(-2.72819 0.00420926 0)
(-2.7327 0.00443039 0)
(-2.73729 0.00467 0)
(-2.74195 0.00492864 0)
(-2.74668 0.00520618 0)
(-2.75151 0.00550202 0)
(-2.75643 0.00581529 0)
(-2.76145 0.00614429 0)
(-2.7666 0.00648619 0)
(-2.77187 0.00683695 0)
(-2.77728 0.00719213 0)
(-2.78286 0.00754523 0)
(-2.7886 0.00788695 0)
(-2.79453 0.00820659 0)
(-2.80068 0.00849087 0)
(-2.80706 0.00872538 0)
(-2.8137 0.00889488 0)
(-2.82064 0.00898216 0)
(-2.82788 0.00896595 0)
(-2.83547 0.00882866 0)
(-2.84341 0.00855004 0)
(-2.85173 0.00809823 0)
(-2.8604 0.00743715 0)
(-2.86938 0.00650808 0)
(-2.87851 0.00530771 0)
(-2.88752 0.0037292 0)