/*--------------------------------*- C++ -*----------------------------------*\
| =========                 |                                                 |
| \\      /  F ield         | OpenFOAM: The Open Source CFD Toolbox           |
|  \\    /   O peration     | Version:  2.1.0                                 |
|   \\  /    A nd           | Web:      www.OpenFOAM.org                      |
|    \\/     M anipulation  |                                                 |
\*---------------------------------------------------------------------------*/
FoamFile
{
    version     2.0;
    format      ascii;
    class       volScalarField;
    location    "0.03";
    object      C1;
}
// * * * * * * * * * * * * * * * * * * * * * * * * * * * * * * * * * * * * * //

dimensions      [0 0 0 0 0 0 0];

internalField   nonuniform List<scalar> 
6400
(
2.32467e-111
1.03907e-110
4.65114e-110
2.07555e-109
9.23393e-109
4.09572e-108
1.81113e-107
7.98472e-107
3.50957e-106
1.53769e-105
6.71525e-105
2.92313e-104
1.26834e-103
5.48581e-103
2.36505e-102
1.01638e-101
4.35435e-101
1.85969e-100
7.91759e-100
3.36039e-99
1.42142e-98
5.99183e-98
2.51761e-97
1.05406e-96
4.39707e-96
1.8276e-95
7.56822e-95
3.12226e-94
1.28315e-93
5.25255e-93
2.14152e-92
8.69619e-92
3.51664e-91
1.41662e-90
5.68387e-90
2.27104e-89
9.03593e-89
3.57954e-88
1.41152e-87
5.5404e-87
2.16484e-86
8.41606e-86
3.25524e-85
1.25253e-84
4.79231e-84
1.8228e-83
6.89348e-83
2.59086e-82
9.67394e-82
3.58732e-81
1.3206e-80
4.82385e-80
1.74765e-79
6.27736e-79
2.23421e-78
7.87663e-78
2.749e-77
9.49267e-77
3.24186e-76
1.09419e-75
3.64829e-75
1.20104e-74
3.90104e-74
1.24912e-73
3.93937e-73
1.22242e-72
3.7285e-72
1.11663e-71
3.28006e-71
9.44117e-71
2.6604e-70
7.33308e-70
1.97576e-69
5.20032e-69
1.33652e-68
3.35284e-68
8.20771e-68
1.96025e-67
4.56648e-67
1.03733e-66
2.29702e-66
4.95571e-66
1.04089e-65
2.12575e-65
4.21227e-65
8.07282e-65
1.48922e-64
2.62544e-64
4.3761e-64
6.78646e-64
9.55949e-64
1.17925e-63
1.20682e-63
9.58549e-64
5.88555e-64
3.62742e-64
3.45267e-64
2.73696e-64
1.61012e-64
5.79927e-65
1.89798e-110
8.49445e-110
3.80573e-109
1.69984e-108
7.56946e-108
3.36066e-107
1.48753e-106
6.56442e-106
2.8882e-105
1.2668e-104
5.53844e-104
2.41364e-103
1.04851e-102
4.54048e-102
1.95987e-101
8.43301e-101
3.61754e-100
1.54714e-99
6.59611e-99
2.80374e-98
1.18779e-97
5.0145e-97
2.11039e-96
8.85063e-96
3.69856e-95
1.54006e-94
6.38971e-94
2.64139e-93
1.08785e-92
4.46323e-92
1.82409e-91
7.42561e-91
3.01044e-90
1.21608e-89
4.89387e-89
1.96162e-88
7.83159e-88
3.1139e-87
1.23272e-86
4.85878e-86
1.90726e-85
7.45126e-85
2.89721e-84
1.1212e-83
4.31651e-83
1.65267e-82
6.29557e-82
2.38469e-81
8.97974e-81
3.36057e-80
1.24944e-79
4.61287e-79
1.69041e-78
6.14658e-78
2.21634e-77
7.92301e-77
2.80624e-76
9.84215e-76
3.41687e-75
1.17321e-74
3.98266e-74
1.33598e-73
4.42504e-73
1.44594e-72
4.65655e-72
1.47634e-71
4.60289e-71
1.40958e-70
4.23488e-70
1.24677e-69
3.59296e-69
1.01257e-68
2.78835e-68
7.49771e-68
1.96768e-67
5.03797e-67
1.25808e-66
3.06348e-66
7.27211e-66
1.68236e-65
3.79157e-65
8.31996e-65
1.776e-64
3.68278e-64
7.40221e-64
1.43729e-63
2.6826e-63
4.77741e-63
8.03029e-63
1.254e-62
1.77825e-62
2.21645e-62
2.32355e-62
1.95335e-62
1.32327e-62
9.28225e-63
8.87776e-63
7.07794e-63
4.29789e-63
1.73404e-63
1.03672e-109
4.65562e-109
2.09288e-108
9.38017e-108
4.1917e-107
1.86759e-106
8.29616e-106
3.67419e-105
1.62241e-104
7.1425e-104
3.13439e-103
1.37112e-102
5.97887e-102
2.59899e-101
1.12611e-100
4.86389e-100
2.0946e-99
8.99398e-99
3.8499e-98
1.64335e-97
6.99196e-97
2.96428e-96
1.25306e-95
5.27873e-95
2.21593e-94
9.26943e-94
3.86389e-93
1.60496e-92
6.64276e-92
2.73927e-91
1.12539e-90
4.60553e-90
1.87701e-89
7.62434e-89
3.086e-88
1.24438e-87
4.99918e-87
2.00068e-86
7.9735e-86
3.1648e-85
1.25161e-84
4.92816e-84
1.9318e-83
7.54212e-83
2.93082e-82
1.13304e-81
4.36159e-81
1.67067e-80
6.36628e-80
2.41297e-79
9.09389e-79
3.40642e-78
1.26766e-77
4.68531e-77
1.71882e-76
6.25729e-76
2.25886e-75
8.08186e-75
2.8645e-74
1.00466e-73
3.4857e-73
1.19566e-72
4.05141e-72
1.35473e-71
4.46541e-71
1.44913e-70
4.62436e-70
1.44926e-69
4.45496e-69
1.34154e-68
3.95306e-68
1.13866e-67
3.20346e-67
8.79696e-67
2.35684e-66
6.15828e-66
1.56897e-65
3.89678e-65
9.43248e-65
2.22456e-64
5.10959e-64
1.14232e-63
2.48338e-63
5.24214e-63
1.07202e-62
2.11675e-62
4.01579e-62
7.26802e-62
1.24214e-61
1.97591e-61
2.86739e-61
3.69455e-61
4.08603e-61
3.75847e-61
2.93793e-61
2.46322e-61
2.42114e-61
2.00646e-61
1.30742e-61
6.09959e-62
5.00355e-109
2.25532e-108
1.01773e-107
4.57912e-107
2.05442e-106
9.19107e-106
4.09958e-105
1.82313e-104
8.08357e-104
3.57326e-103
1.57486e-102
6.91996e-102
3.03081e-101
1.32317e-100
5.7576e-100
2.49752e-99
1.08029e-98
4.65893e-98
2.00288e-97
8.58883e-97
3.67176e-96
1.56412e-95
6.64442e-95
2.8131e-94
1.1868e-93
4.98938e-93
2.09035e-92
8.72791e-92
3.63132e-91
1.50549e-90
6.21959e-90
2.55962e-89
1.04903e-88
4.28543e-88
1.74445e-87
7.07525e-87
2.86025e-86
1.15185e-85
4.61959e-85
1.84586e-84
7.35031e-84
2.91462e-83
1.15081e-82
4.52864e-82
1.77442e-81
6.9185e-81
2.68753e-80
1.03941e-79
4.00143e-79
1.53309e-78
5.84467e-78
2.21607e-77
8.35422e-77
3.13056e-76
1.16538e-75
4.30761e-75
1.58017e-74
5.7515e-74
2.07512e-73
7.41219e-73
2.61992e-72
9.15808e-72
3.16347e-71
1.07873e-70
3.62689e-70
1.20084e-69
3.91012e-69
1.2505e-68
3.92281e-68
1.20555e-67
3.62525e-67
1.06565e-66
3.05955e-66
8.57428e-66
2.3445e-65
6.25285e-65
1.62626e-64
4.12398e-64
1.01948e-63
2.45621e-63
5.76523e-63
1.31757e-62
2.92909e-62
6.32513e-62
1.32392e-61
2.67767e-61
5.20978e-61
9.68912e-61
1.70717e-60
2.81485e-60
4.2719e-60
5.84099e-60
7.01838e-60
7.26544e-60
6.65483e-60
6.51074e-60
6.73685e-60
5.95441e-60
4.25569e-60
2.30307e-60
2.18436e-108
9.88341e-108
4.47823e-107
2.02329e-106
9.1165e-106
4.09583e-105
1.83502e-104
8.19722e-104
3.65021e-103
1.6206e-102
7.17573e-102
3.16781e-101
1.39409e-100
6.11652e-100
2.67452e-99
1.1656e-98
5.06534e-98
2.19481e-97
9.47965e-97
4.0843e-96
1.7547e-95
7.51368e-95
3.20745e-94
1.36501e-93
5.78922e-93
2.44671e-92
1.03054e-91
4.32587e-91
1.80972e-90
7.54478e-90
3.13476e-89
1.29764e-88
5.34934e-88
2.19774e-87
8.99658e-87
3.66958e-86
1.4925e-85
6.04745e-85
2.44022e-84
9.81275e-84
3.93283e-83
1.56978e-82
6.23974e-82
2.47281e-81
9.76033e-81
3.83484e-80
1.50131e-79
5.85433e-79
2.27332e-78
8.78911e-78
3.38237e-77
1.29522e-76
4.93353e-76
1.86936e-75
7.04123e-75
2.63449e-74
9.79135e-74
3.61407e-73
1.32318e-72
4.80041e-72
1.72403e-71
6.12497e-71
2.1511e-70
7.46048e-70
2.55219e-69
8.60104e-69
2.85173e-68
9.28989e-68
2.96956e-67
9.30266e-67
2.85263e-66
8.55396e-66
2.50625e-65
7.17072e-65
2.00265e-64
5.45811e-64
1.45148e-63
3.76588e-63
9.53143e-63
2.35294e-62
5.66368e-62
1.32864e-61
3.03519e-61
6.74372e-61
1.45463e-60
3.03804e-60
6.1203e-60
1.18297e-59
2.17765e-59
3.77986e-59
6.1056e-59
9.02861e-59
1.20032e-58
1.41669e-58
1.51719e-58
1.68855e-58
1.87112e-58
1.79477e-58
1.42456e-58
8.87397e-59
8.70837e-108
3.95591e-107
1.79993e-106
8.16761e-106
3.69565e-105
1.66718e-104
7.50275e-104
3.36654e-103
1.50585e-102
6.71825e-102
2.98854e-101
1.32515e-100
5.86026e-100
2.58415e-99
1.13574e-98
4.97434e-98
2.17215e-97
9.46103e-97
4.10818e-96
1.77839e-95
7.67836e-95
3.30456e-94
1.41766e-93
6.06397e-93
2.58609e-92
1.09902e-91
4.65421e-91
1.96428e-90
8.26304e-90
3.46489e-89
1.44805e-88
6.02906e-88
2.50027e-87
1.03306e-86
4.25388e-86
1.74528e-85
7.13919e-85
2.91092e-84
1.18206e-83
4.78264e-83
1.92871e-82
7.74972e-82
3.10135e-81
1.2367e-80
4.9147e-80
1.945e-79
7.66788e-79
3.01208e-78
1.17852e-77
4.5916e-77
1.78116e-76
6.87759e-76
2.6415e-75
1.00967e-74
3.8391e-74
1.45066e-73
5.4481e-73
2.03284e-72
7.52932e-72
2.76639e-71
1.00693e-70
3.62768e-70
1.29261e-69
4.55083e-69
1.58126e-68
5.4159e-68
1.82612e-67
6.05363e-67
1.97049e-66
6.29023e-66
1.96689e-65
6.01848e-65
1.80078e-64
5.26577e-64
1.50425e-63
4.19702e-63
1.14363e-62
3.04321e-62
7.90791e-62
2.00652e-61
4.97056e-61
1.20173e-60
2.83397e-60
6.51265e-60
1.45636e-59
3.16241e-59
6.64805e-59
1.34728e-58
2.61684e-58
4.83362e-58
8.40549e-58
1.35925e-57
2.01721e-57
2.72243e-57
3.38211e-57
4.21508e-57
5.06908e-57
5.34416e-57
4.74825e-57
3.37856e-57
3.16964e-107
1.44557e-106
6.60184e-106
3.00742e-105
1.36638e-104
6.19202e-104
2.7985e-103
1.26127e-102
5.66859e-102
2.54082e-101
1.13554e-100
5.05974e-100
2.24781e-99
9.95474e-99
4.39626e-98
1.93565e-97
8.49357e-97
3.71696e-96
1.62248e-95
7.05845e-95
3.06253e-94
1.32515e-93
5.71712e-93
2.45816e-92
1.05383e-91
4.50361e-91
1.91795e-90
8.1395e-90
3.4423e-89
1.45191e-88
6.10395e-88
2.55669e-87
1.06698e-86
4.43552e-86
1.83794e-85
7.58876e-85
3.12227e-84
1.28111e-83
5.23717e-83
2.13255e-82
8.65473e-82
3.50099e-81
1.41096e-80
5.66342e-80
2.26622e-79
9.0306e-79
3.58378e-78
1.41732e-77
5.58224e-77
2.1898e-76
8.55727e-76
3.32945e-75
1.2889e-74
4.9644e-74
1.90275e-73
7.25094e-73
2.74721e-72
1.03441e-71
3.86819e-71
1.43582e-70
5.28473e-70
1.92692e-69
6.95387e-69
2.48136e-68
8.74542e-68
3.04075e-67
1.04172e-66
3.51192e-66
1.16367e-65
3.78504e-65
1.20716e-64
3.77146e-64
1.15342e-63
3.45117e-63
1.00991e-62
2.88964e-62
8.0839e-62
2.21114e-61
5.91346e-61
1.54637e-60
3.95389e-60
9.8835e-60
2.41448e-59
5.76093e-59
1.34118e-58
3.04194e-58
6.70697e-58
1.43302e-57
2.95427e-57
5.84277e-57
1.10034e-56
1.95542e-56
3.24694e-56
4.99788e-56
7.14538e-56
9.91266e-56
1.30892e-55
1.53357e-55
1.53612e-55
1.2445e-55
1.04438e-106
4.78138e-106
2.1921e-105
1.00243e-104
4.5734e-104
2.08133e-103
9.44524e-103
4.27516e-102
1.92967e-101
8.68686e-101
3.89992e-100
1.74579e-99
7.79265e-99
3.46764e-98
1.53838e-97
6.80555e-97
3.00073e-96
1.31917e-95
5.7857e-95
2.52961e-94
1.10319e-93
4.79757e-93
2.08024e-92
8.99458e-92
3.87627e-91
1.66558e-90
7.13433e-90
3.0453e-89
1.2957e-88
5.49486e-88
2.32309e-87
9.79273e-87
4.1138e-86
1.72143e-85
7.17949e-85
2.98396e-84
1.23544e-83
5.10118e-83
2.09981e-82
8.60801e-82
3.5158e-81
1.43202e-80
5.81301e-80
2.34965e-79
9.46613e-79
3.80009e-78
1.51888e-77
6.04745e-77
2.39876e-76
9.47618e-76
3.72884e-75
1.46163e-74
5.70358e-74
2.21443e-73
8.55356e-73
3.28624e-72
1.25546e-71
4.76727e-71
1.79884e-70
6.74053e-70
2.50623e-69
9.23849e-69
3.37322e-68
1.21884e-67
4.35374e-67
1.5357e-66
5.34278e-66
1.83117e-65
6.17569e-65
2.04701e-64
6.66115e-64
2.12612e-63
6.65155e-63
2.03852e-62
6.11794e-62
1.79763e-61
5.17097e-61
1.45623e-60
4.01521e-60
1.08407e-59
2.86631e-59
7.42183e-59
1.88182e-58
4.67083e-58
1.13429e-57
2.69257e-57
6.23906e-57
1.40827e-56
3.0875e-56
6.54917e-56
1.3372e-55
2.61128e-55
4.84084e-55
8.45426e-55
1.38288e-54
2.14183e-54
3.14219e-54
4.1402e-54
4.71924e-54
4.36801e-54
3.08209e-106
1.41614e-105
6.51899e-105
2.99333e-104
1.37081e-103
6.26191e-103
2.85273e-102
1.29602e-101
5.87364e-101
2.65457e-100
1.19666e-99
5.37995e-99
2.41162e-98
1.07823e-97
4.80629e-97
2.13585e-96
9.46119e-96
4.17862e-95
1.84073e-94
8.0854e-94
3.54365e-93
1.54874e-92
6.74557e-92
2.93158e-91
1.27003e-90
5.48463e-90
2.36248e-89
1.01445e-88
4.34204e-88
1.85191e-87
7.87566e-87
3.33959e-86
1.41125e-85
5.94221e-85
2.49426e-84
1.04349e-83
4.34941e-83
1.80723e-82
7.48885e-82
3.09267e-81
1.27205e-80
5.21668e-80
2.13291e-79
8.68635e-79
3.52577e-78
1.42634e-77
5.74628e-77
2.30521e-76
9.21582e-76
3.67013e-75
1.45526e-74
5.74655e-74
2.26e-73
8.84776e-73
3.44699e-72
1.33596e-71
5.1502e-71
1.9737e-70
7.51769e-70
2.84473e-69
1.06874e-68
3.98337e-68
1.47171e-67
5.38524e-67
1.94978e-66
6.97778e-66
2.46563e-65
8.59291e-65
2.9504e-64
9.96934e-64
3.31166e-63
1.08054e-62
3.46051e-62
1.08719e-61
3.34939e-61
1.01163e-60
2.99527e-60
8.69383e-60
2.47392e-59
6.90274e-59
1.8888e-58
5.06918e-58
1.33447e-57
3.44575e-57
8.72552e-57
2.16604e-56
5.26774e-56
1.25374e-55
2.91574e-55
6.61159e-55
1.45746e-54
3.11113e-54
6.39836e-54
1.25919e-53
2.34877e-53
4.11339e-53
6.79731e-53
1.02291e-52
1.34695e-52
1.44204e-52
8.06444e-106
3.71702e-105
1.71637e-104
7.90747e-104
3.63287e-103
1.66484e-102
7.61071e-102
3.46908e-101
1.57798e-100
7.15769e-100
3.2369e-99
1.461e-98
6.5762e-98
2.95145e-97
1.32064e-96
5.89163e-96
2.62087e-95
1.16293e-94
5.14732e-94
2.27146e-93
9.99399e-93
4.38653e-92
1.91957e-91
8.37692e-91
3.64685e-90
1.58289e-89
6.84955e-89
2.95634e-88
1.27229e-87
5.45595e-87
2.33204e-86
9.94124e-86
4.22501e-85
1.7895e-84
7.55609e-84
3.18067e-83
1.33433e-82
5.57891e-82
2.32617e-81
9.67302e-81
4.00769e-80
1.65463e-79
6.81151e-79
2.79445e-78
1.1426e-77
4.65758e-77
1.89197e-76
7.65442e-76
3.08517e-75
1.23916e-74
4.95713e-74
1.97482e-73
7.83389e-73
3.0947e-72
1.21707e-71
4.76307e-71
1.85475e-70
7.18253e-70
2.7653e-69
1.05804e-68
4.02123e-68
1.5172e-67
5.67855e-67
2.10661e-66
7.73928e-66
2.81303e-65
1.01059e-64
3.5847e-64
1.2542e-63
4.32389e-63
1.46741e-62
4.89815e-62
1.60698e-61
5.17908e-61
1.63903e-60
5.0922e-60
1.55296e-59
4.64889e-59
1.36615e-58
3.9415e-58
1.11659e-57
3.10642e-57
8.48784e-57
2.27788e-56
6.00417e-56
1.55424e-55
3.95037e-55
9.85532e-55
2.41223e-54
5.7892e-54
1.36124e-53
3.13291e-53
7.04916e-53
1.54572e-52
3.27443e-52
6.62855e-52
1.26316e-51
2.22283e-51
3.47303e-51
4.41642e-51
1.84706e-105
8.53288e-105
3.94806e-104
1.82245e-103
8.39338e-103
3.85636e-102
1.76734e-101
8.08105e-101
3.68562e-100
1.67607e-99
7.60239e-99
3.44049e-98
1.55338e-97
6.99294e-97
3.13829e-96
1.40506e-95
6.27343e-95
2.79329e-94
1.24076e-93
5.49752e-93
2.4283e-92
1.06976e-91
4.69904e-91
2.05761e-90
8.99218e-90
3.91962e-89
1.70262e-88
7.37592e-88
3.18714e-87
1.37308e-86
5.89663e-86
2.52501e-85
1.0781e-84
4.58926e-84
1.9473e-83
8.23946e-83
3.47604e-82
1.46171e-81
6.12806e-81
2.56175e-80
1.06777e-79
4.43579e-79
1.83718e-78
7.58656e-78
3.12337e-77
1.28178e-76
5.24171e-76
2.13637e-75
8.67799e-75
3.51298e-74
1.41704e-73
5.69423e-73
2.27933e-72
9.08763e-72
3.60861e-71
1.42666e-70
5.61376e-70
2.19818e-69
8.56173e-69
3.31591e-68
1.27637e-67
4.88009e-67
1.85211e-66
6.97208e-66
2.60104e-65
9.60788e-65
3.51066e-64
1.26767e-63
4.51911e-63
1.58893e-62
5.5049e-62
1.87773e-61
6.30171e-61
2.07965e-60
6.74628e-60
2.15069e-59
6.7373e-59
2.07394e-58
6.27412e-58
1.86564e-57
5.454e-57
1.56787e-56
4.43307e-56
1.23307e-55
3.3746e-55
9.08769e-55
2.40825e-54
6.27992e-54
1.6113e-53
4.06731e-53
1.00992e-52
2.46641e-52
5.92457e-52
1.40039e-51
3.26073e-51
7.39942e-51
1.61555e-50
3.33368e-50
6.24022e-50
9.57234e-50
3.6531e-105
1.68975e-104
7.82898e-104
3.61817e-103
1.66926e-102
7.68148e-102
3.52413e-101
1.61425e-100
7.37672e-100
3.36072e-99
1.52714e-98
6.9227e-98
3.13143e-97
1.41278e-96
6.35631e-96
2.85144e-95
1.27569e-94
5.69416e-94
2.53414e-93
1.12502e-92
4.98341e-92
2.20143e-91
9.69623e-91
4.25898e-90
1.86557e-89
8.15084e-89
3.55197e-88
1.54329e-87
6.687e-87
2.88982e-86
1.24562e-85
5.35111e-85
2.2915e-84
9.78934e-84
4.16974e-83
1.77056e-82
7.49777e-82
3.16603e-81
1.33274e-80
5.59265e-80
2.33948e-79
9.75653e-79
4.05772e-78
1.68325e-77
6.96255e-77
2.86921e-76
1.1783e-75
4.82648e-75
1.97043e-74
8.0154e-74
3.25076e-73
1.31364e-72
5.28994e-72
2.12249e-71
8.48104e-71
3.37496e-70
1.33727e-69
5.2746e-69
2.0702e-68
8.08316e-68
3.13835e-67
1.21095e-66
4.6408e-66
1.76527e-65
6.65978e-65
2.48997e-64
9.2182e-64
3.37627e-63
1.22232e-62
4.37038e-62
1.54196e-61
5.36423e-61
1.83879e-60
6.20744e-60
2.06285e-59
6.74646e-59
2.17102e-58
6.874e-58
2.14154e-57
6.56535e-57
1.98096e-56
5.88382e-56
1.72068e-55
4.95543e-55
1.40568e-54
3.92804e-54
1.08145e-53
2.93364e-53
7.84146e-53
2.0653e-52
5.36017e-52
1.37097e-51
3.45655e-51
8.59547e-51
2.11013e-50
5.09073e-50
1.18917e-49
2.64549e-49
5.39313e-49
9.15727e-49
6.14341e-105
2.84308e-104
1.31826e-103
6.09628e-103
2.81265e-102
1.29485e-101
5.94708e-101
2.72433e-100
1.24489e-99
5.67782e-99
2.58346e-98
1.17242e-97
5.3069e-97
2.3958e-96
1.07895e-95
4.84662e-95
2.17117e-94
9.69813e-94
4.31859e-93
1.91856e-92
8.50768e-92
3.76246e-91
1.65929e-90
7.29827e-90
3.1998e-89
1.39957e-88
6.10698e-88
2.65732e-87
1.1529e-86
4.98877e-86
2.15312e-85
9.26619e-85
3.97644e-84
1.70131e-83
7.2573e-83
3.08622e-82
1.30908e-81
5.53829e-81
2.33531e-80
9.81584e-80
4.11402e-79
1.71975e-78
7.16813e-78
2.97807e-77
1.23324e-76
5.09112e-76
2.0955e-75
8.59976e-75
3.5177e-74
1.43474e-73
5.83372e-73
2.36373e-72
9.5435e-72
3.83901e-71
1.53886e-70
6.14494e-70
2.44406e-69
9.67882e-69
3.81513e-68
1.49652e-67
5.83973e-67
2.26573e-66
8.73593e-66
3.3455e-65
1.27175e-64
4.79563e-64
1.79264e-63
6.63786e-63
2.43294e-62
8.82059e-62
3.16102e-61
1.11899e-60
3.91037e-60
1.34827e-59
4.58466e-59
1.53696e-58
5.07857e-58
1.65376e-57
5.30671e-57
1.67801e-56
5.22881e-56
1.60578e-55
4.86066e-55
1.45039e-54
4.26685e-54
1.23768e-53
3.54019e-53
9.98569e-53
2.7776e-52
7.61894e-52
2.06084e-51
5.49706e-51
1.44616e-50
3.75389e-50
9.62182e-50
2.43089e-49
5.97267e-49
1.40661e-48
3.0694e-48
5.70048e-48
8.6742e-105
4.01105e-104
1.85883e-103
8.59403e-103
3.96221e-102
1.8232e-101
8.37181e-101
3.83252e-100
1.74995e-99
7.97518e-99
3.62752e-98
1.64574e-97
7.44417e-97
3.35867e-96
1.51183e-95
6.79011e-95
3.04076e-94
1.35724e-93
6.04159e-93
2.68223e-92
1.18791e-91
5.24909e-91
2.31344e-90
1.01677e-89
4.4561e-89
1.94775e-88
8.49331e-88
3.69431e-87
1.60182e-86
6.92545e-86
2.98614e-85
1.28474e-84
5.51157e-84
2.3558e-83
1.00406e-82
4.26792e-82
1.80861e-81
7.64166e-81
3.21899e-80
1.35187e-79
5.66322e-79
2.36475e-78
9.84168e-78
4.08302e-77
1.68811e-76
6.95989e-76
2.86206e-75
1.17316e-74
4.79258e-74
1.95211e-73
7.92634e-73
3.20761e-72
1.29355e-71
5.19871e-71
2.08241e-70
8.31107e-70
3.30368e-69
1.30787e-68
5.15575e-68
2.02305e-67
7.89832e-67
3.06706e-66
1.18417e-65
4.54413e-65
1.73235e-64
6.55791e-64
2.46388e-63
9.18269e-63
3.39299e-62
1.24232e-61
4.50517e-61
1.61733e-60
5.74488e-60
2.01818e-59
7.00902e-59
2.40557e-58
8.15667e-58
2.73177e-57
9.03516e-57
2.95075e-56
9.51475e-56
3.02909e-55
9.52075e-55
2.95444e-54
9.0516e-54
2.73791e-53
8.17605e-53
2.41029e-52
7.0137e-52
2.01425e-51
5.70798e-51
1.59579e-50
4.40091e-50
1.19731e-49
3.21475e-49
8.51748e-49
2.20379e-48
5.50007e-48
1.28614e-47
2.61815e-47
1.01011e-104
4.66412e-104
2.15757e-103
9.95959e-103
4.5859e-102
2.10625e-101
9.65244e-101
4.41272e-100
2.01194e-99
9.152e-99
4.15363e-98
1.8801e-97
8.48783e-97
3.82199e-96
1.71685e-95
7.6924e-95
3.43713e-94
1.53147e-93
6.80671e-93
3.01585e-92
1.33187e-91
5.86914e-91
2.58e-90
1.13093e-89
4.94405e-89
2.15513e-88
9.37052e-88
4.06396e-87
1.75712e-86
7.57552e-86
3.25657e-85
1.39585e-84
5.96648e-84
2.54271e-83
1.08021e-82
4.57558e-82
1.93184e-81
8.1292e-81
3.41105e-80
1.42692e-79
5.95016e-79
2.47286e-78
1.02405e-77
4.22786e-77
1.74053e-76
7.14275e-76
2.92168e-75
1.19117e-74
4.84116e-74
1.96087e-73
7.91523e-73
3.18491e-72
1.27735e-71
5.10545e-71
2.03319e-70
8.06807e-70
3.18899e-69
1.25551e-68
4.92268e-68
1.92114e-67
7.46066e-67
2.88251e-66
1.10779e-65
4.23395e-65
1.60886e-64
6.07652e-64
2.28052e-63
8.50208e-63
3.14775e-62
1.15701e-61
4.22109e-61
1.52812e-60
5.48826e-60
1.955e-59
6.9055e-59
2.41812e-58
8.39267e-58
2.8865e-57
9.83581e-57
3.32006e-56
1.10997e-55
3.67495e-55
1.20477e-54
3.9103e-54
1.25635e-53
3.99518e-53
1.25719e-52
3.91375e-52
1.20499e-51
3.66775e-51
1.10318e-50
3.27721e-50
9.61056e-50
2.78089e-49
7.93854e-49
2.23633e-48
6.17814e-48
1.6559e-47
4.19893e-47
9.45609e-47
9.4954e-105
4.37519e-104
2.01908e-103
9.29671e-103
4.27012e-102
1.95575e-101
8.9352e-101
4.0722e-100
1.85117e-99
8.39518e-99
3.79729e-98
1.71265e-97
7.70561e-97
3.45902e-96
1.54873e-95
6.9134e-95
3.07731e-94
1.36592e-93
6.04592e-93
2.66835e-92
1.17398e-91
5.15021e-91
2.25383e-90
9.83791e-90
4.28203e-89
1.85814e-88
8.03763e-88
3.46768e-87
1.49213e-86
6.40069e-86
2.73728e-85
1.16663e-84
4.95614e-84
2.09959e-83
8.86813e-83
3.73296e-82
1.56596e-81
6.54585e-81
2.72706e-80
1.13266e-79
4.68771e-79
1.93305e-78
7.94299e-78
3.25237e-77
1.32731e-76
5.39859e-76
2.18852e-75
8.84163e-75
3.5595e-74
1.42779e-73
5.70677e-73
2.27305e-72
9.02071e-72
3.56653e-71
1.40461e-70
5.51035e-70
2.15321e-69
8.37935e-69
3.24676e-68
1.25204e-67
4.80461e-67
1.83466e-66
6.97071e-66
2.635e-65
9.90871e-65
3.70628e-64
1.3788e-63
5.10119e-63
1.87682e-62
6.86663e-62
2.49825e-61
9.03895e-61
3.25254e-60
1.1641e-59
4.14449e-59
1.46794e-58
5.173e-58
1.81387e-57
6.32889e-57
2.19747e-56
7.59293e-56
2.61088e-55
8.93401e-55
3.042e-54
1.03055e-53
3.47296e-53
1.16392e-52
3.87775e-52
1.28365e-51
4.21933e-51
1.37601e-50
4.44796e-50
1.42359e-49
4.50581e-49
1.40863e-48
4.34349e-48
1.31905e-47
3.90386e-47
1.09993e-46
2.78885e-46
7.03856e-105
3.23393e-104
1.48794e-103
6.82856e-103
3.12548e-102
1.42663e-101
6.49476e-101
2.94898e-100
1.33554e-99
6.03263e-99
2.71747e-98
1.2207e-97
5.46911e-97
2.44411e-96
1.08926e-95
4.84033e-95
2.14453e-94
9.47272e-94
4.17129e-93
1.83133e-92
8.01602e-92
3.49745e-91
1.52161e-90
6.60134e-90
2.85537e-89
1.23132e-88
5.29263e-88
2.26813e-87
9.69096e-87
4.12757e-86
1.75235e-85
7.41444e-85
3.1264e-84
1.31397e-83
5.50393e-83
2.29716e-82
9.55282e-82
3.95802e-81
1.63378e-80
6.71996e-80
2.75373e-79
1.12401e-78
4.57064e-78
1.85143e-77
7.47014e-77
3.00248e-76
1.20232e-75
4.7965e-75
1.90604e-74
7.54428e-74
2.97421e-73
1.16784e-72
4.5665e-72
1.77806e-71
6.89331e-71
2.66074e-70
1.02242e-69
3.9108e-69
1.48884e-68
5.63991e-68
2.12595e-67
7.9745e-67
2.97654e-66
1.1055e-65
4.08538e-65
1.50218e-64
5.49594e-64
2.00085e-63
7.24917e-63
2.61416e-62
9.38504e-62
3.35523e-61
1.19491e-60
4.24081e-60
1.50056e-59
5.29616e-59
1.86552e-58
6.56163e-58
2.30598e-57
8.10211e-57
2.84787e-56
1.0021e-55
3.53235e-55
1.24816e-54
4.42382e-54
1.57353e-53
5.61926e-53
2.01508e-52
7.25602e-52
2.62263e-51
9.50777e-51
3.453e-50
1.25417e-49
4.54572e-49
1.63929e-48
5.85554e-48
2.06564e-47
7.11637e-47
2.33286e-46
6.87804e-46
4.02117e-105
1.84182e-104
8.44642e-104
3.86227e-103
1.76108e-102
8.00782e-102
3.63132e-101
1.64226e-100
7.40744e-100
3.33189e-99
1.49439e-98
6.68359e-98
2.98087e-97
1.32564e-96
5.87797e-96
2.59853e-95
1.14522e-94
5.03144e-94
2.2034e-93
9.61816e-93
4.18482e-92
1.8149e-91
7.8457e-91
3.38078e-90
1.45213e-89
6.21718e-89
2.65337e-88
1.12868e-87
4.78465e-87
2.02148e-86
8.51157e-86
3.57111e-85
1.49296e-84
6.21912e-84
2.58082e-83
1.06688e-82
4.39336e-82
1.80207e-81
7.36244e-81
2.99562e-80
1.21373e-79
4.89718e-79
1.96768e-78
7.87243e-78
3.13606e-77
1.24385e-76
4.91222e-76
1.93142e-75
7.56005e-75
2.94584e-74
1.14258e-73
4.41076e-73
1.69444e-72
6.47756e-72
2.46392e-71
9.32465e-71
3.51059e-70
1.31481e-69
4.89841e-69
1.81506e-68
6.69023e-68
2.45324e-67
8.94921e-67
3.24777e-66
1.17261e-65
4.21231e-65
1.50565e-64
5.35592e-64
1.89642e-63
6.68552e-63
2.34736e-62
8.2118e-62
2.86366e-61
9.96028e-61
3.45751e-60
1.19867e-59
4.15348e-59
1.43967e-58
4.99628e-58
1.73777e-57
6.06428e-57
2.12589e-56
7.4966e-56
2.66323e-55
9.54806e-55
3.4613e-54
1.27171e-53
4.74844e-53
1.80768e-52
7.04203e-52
2.8183e-51
1.16309e-50
4.96262e-50
2.18946e-49
9.94035e-49
4.5851e-48
2.1047e-47
9.40689e-47
3.93654e-46
1.43969e-45
1.69675e-105
7.75032e-105
3.54387e-104
1.61542e-103
7.34181e-103
3.32714e-102
1.50347e-101
6.77466e-101
3.04415e-100
1.36395e-99
6.09299e-99
2.71377e-98
1.20513e-97
5.33558e-97
2.35498e-96
1.03616e-95
4.54427e-95
1.98643e-94
8.65388e-94
3.75722e-93
1.62564e-92
7.00946e-92
3.012e-91
1.28982e-90
5.50426e-90
2.34084e-89
9.92089e-89
4.18996e-88
1.76308e-87
7.39175e-87
3.08765e-86
1.28486e-85
5.32622e-85
2.19929e-84
9.04408e-84
3.70379e-83
1.51043e-82
6.13338e-82
2.47974e-81
9.98018e-81
3.99818e-80
1.59435e-79
6.32824e-79
2.49978e-78
9.82683e-78
3.84396e-77
1.49621e-76
5.79428e-76
2.2323e-75
8.55507e-75
3.26106e-74
1.23621e-73
4.65952e-73
1.74618e-72
6.50572e-72
2.40943e-71
8.86947e-71
3.24532e-70
1.18028e-69
4.26615e-69
1.53287e-68
5.47598e-68
1.94508e-67
6.87036e-67
2.41341e-66
8.43239e-66
2.93095e-65
1.01367e-64
3.48917e-64
1.1957e-63
4.08108e-63
1.38798e-62
4.7064e-62
1.59212e-61
5.37722e-61
1.81463e-60
6.12417e-60
2.06898e-59
7.00442e-59
2.37897e-58
8.11619e-58
2.78523e-57
9.62879e-57
3.3589e-56
1.18444e-55
4.23031e-55
1.53363e-54
5.65716e-54
2.12895e-53
8.20036e-53
3.2489e-52
1.33727e-51
5.85754e-51
2.87844e-50
1.70549e-49
1.23237e-48
9.73151e-48
7.40166e-47
4.92009e-46
2.57441e-45
3.36471e-106
1.53742e-105
7.03467e-105
3.20867e-104
1.45911e-103
6.61561e-103
2.99069e-102
1.348e-101
6.05838e-101
2.71497e-100
1.21296e-99
5.40243e-99
2.39898e-98
1.06202e-97
4.68676e-97
2.06169e-96
9.03921e-96
3.94967e-95
1.71977e-94
7.46165e-94
3.22584e-93
1.38964e-92
5.96507e-92
2.55133e-91
1.08728e-90
4.61674e-90
1.95326e-89
8.2339e-89
3.45765e-88
1.44639e-87
6.02732e-87
2.5017e-86
1.03418e-85
4.25778e-85
1.74539e-84
7.12364e-84
2.89452e-83
1.17079e-82
4.71366e-82
1.88853e-81
7.52918e-81
2.98697e-80
1.17905e-79
4.63014e-79
1.80877e-78
7.02828e-78
2.71627e-77
1.04398e-76
3.98982e-76
1.51607e-75
5.72704e-75
2.15034e-74
8.02349e-74
2.97477e-73
1.09578e-72
4.0097e-72
1.4573e-71
5.26036e-71
1.88575e-70
6.71266e-70
2.37303e-69
8.33214e-69
2.90584e-68
1.00663e-67
3.46396e-67
1.18421e-66
4.02258e-66
1.35799e-65
4.55762e-65
1.52128e-64
5.05273e-64
1.67088e-63
5.50493e-63
1.80832e-62
5.92757e-62
1.94068e-61
6.3524e-61
2.08112e-60
6.83169e-60
2.24992e-59
7.44363e-59
2.47742e-58
8.30759e-58
2.81131e-57
9.61657e-57
3.33101e-56
1.17055e-55
4.18102e-55
1.52077e-54
5.64332e-54
2.14123e-53
8.34316e-53
3.38537e-52
1.50768e-51
8.31391e-51
6.48011e-50
8.98374e-49
2.08331e-47
3.89749e-46
3.86225e-45
8.94084e-66
7.16516e-66
5.91463e-66
4.62063e-66
3.48074e-66
2.57326e-66
1.89239e-66
1.39831e-66
1.04556e-66
7.94652e-67
6.1508e-67
4.84568e-67
3.87501e-67
3.12986e-67
2.5335e-67
2.0295e-67
1.57719e-67
1.15442e-67
7.71231e-68
5.02489e-68
4.28155e-64
3.24637e-64
2.50805e-64
1.86951e-64
1.35798e-64
9.73998e-65
6.97883e-65
5.04117e-65
3.69563e-65
2.76104e-65
2.10591e-65
1.63849e-65
1.29672e-65
1.03851e-65
8.3496e-66
6.65215e-66
5.14338e-66
3.73874e-66
2.46177e-66
1.55357e-66
2.02865e-62
1.47897e-62
1.07556e-62
7.6262e-63
5.31979e-63
3.68904e-63
2.56835e-63
1.80974e-63
1.29847e-63
9.52281e-64
7.14931e-64
5.48874e-64
4.29612e-64
3.40998e-64
2.72234e-64
2.15672e-64
1.65889e-64
1.19722e-64
7.76368e-65
4.73513e-65
9.34902e-61
6.58797e-61
4.56326e-61
3.09046e-61
2.07013e-61
1.38579e-61
9.35712e-62
6.42006e-62
4.50106e-62
3.23594e-62
2.38858e-62
1.80782e-62
1.39847e-62
1.09956e-62
8.71363e-63
6.8631e-63
5.2507e-63
3.76125e-63
2.39998e-63
1.41091e-63
4.15697e-59
2.84713e-59
1.89319e-59
1.23113e-59
7.93783e-60
5.13201e-60
3.35906e-60
2.24207e-60
1.5344e-60
1.08032e-60
7.8336e-61
5.84078e-61
4.46296e-61
3.4746e-61
2.73258e-61
2.13953e-61
1.62802e-61
1.1573e-61
7.26013e-62
4.10168e-62
1.77366e-57
1.18774e-57
7.63018e-58
4.7864e-58
2.97909e-58
1.86285e-58
1.18247e-58
7.67702e-59
5.12615e-59
3.53262e-59
2.515e-59
1.8464e-59
1.39305e-59
1.07361e-59
8.37818e-60
6.52106e-60
4.93547e-60
3.48139e-60
2.14552e-60
1.16098e-60
7.23503e-56
4.76505e-56
2.97352e-56
1.80664e-56
1.08853e-56
6.59472e-57
4.06355e-57
2.56704e-57
1.67241e-57
1.12789e-57
7.88184e-58
5.69605e-58
4.24237e-58
3.23616e-58
2.5059e-58
1.93912e-58
1.46002e-58
1.02198e-58
6.18314e-59
3.19267e-59
2.81451e-54
1.83324e-54
1.11648e-54
6.59345e-55
3.85561e-55
2.26708e-55
1.35764e-55
8.3509e-56
5.31008e-56
3.50509e-56
2.40418e-56
1.71015e-56
1.2573e-56
9.49281e-57
7.29473e-57
5.61335e-57
4.20586e-57
2.92206e-57
1.73454e-57
8.51072e-58
1.04232e-52
6.74858e-53
4.02706e-53
2.31856e-53
1.31889e-53
7.53906e-54
4.39358e-54
2.63378e-54
1.63546e-54
1.05691e-54
7.11673e-55
4.98311e-55
3.61678e-55
2.7031e-55
2.06182e-55
1.57827e-55
1.17725e-55
8.12072e-56
4.72738e-56
2.19408e-56
3.66949e-51
2.37237e-51
1.39164e-51
7.83124e-52
4.34253e-52
2.41691e-52
1.37259e-52
8.02645e-53
4.86991e-53
3.08239e-53
2.03829e-53
1.40523e-53
1.00718e-53
7.45279e-54
5.64425e-54
4.29945e-54
3.19418e-54
2.18859e-54
1.2491e-54
5.45783e-55
9.34217e-50
6.07855e-50
3.53267e-50
1.95436e-50
1.06076e-50
5.76831e-51
3.1966e-51
1.82766e-51
1.08644e-51
6.74453e-52
4.383e-52
2.97706e-52
2.10724e-52
1.54401e-52
1.16091e-52
8.80687e-53
6.53566e-53
4.48096e-53
2.55251e-53
1.08974e-53
1.01157e-48
6.75333e-49
4.00448e-49
2.25137e-49
1.23827e-49
6.81515e-50
3.81927e-50
2.20863e-50
1.32844e-50
8.34142e-51
5.47522e-51
3.75285e-51
2.67622e-51
1.97418e-51
1.49299e-51
1.1396e-51
8.52192e-52
5.90251e-52
3.40966e-52
1.47294e-52
7.14394e-48
4.92823e-48
3.00579e-48
1.73366e-48
9.7715e-49
5.50928e-49
3.1608e-49
1.86921e-49
1.14907e-49
7.37289e-50
4.938e-50
3.44633e-50
2.49656e-50
1.86681e-50
1.42863e-50
1.10266e-50
8.3454e-51
5.86617e-51
3.45477e-51
1.52132e-51
3.75287e-47
2.69436e-47
1.7012e-47
1.01285e-47
5.88819e-48
3.42372e-48
2.02492e-48
1.2332e-48
7.79708e-49
5.13933e-49
3.53012e-49
2.52096e-49
1.86397e-49
1.41882e-49
1.10287e-49
8.63498e-50
6.6317e-50
4.74125e-50
2.85159e-50
1.2808e-50
1.56551e-46
1.17974e-46
7.76342e-47
4.79898e-47
2.89364e-47
1.74459e-47
1.06925e-47
6.7399e-48
4.40307e-48
2.99275e-48
2.11556e-48
1.55089e-48
1.17384e-48
9.1203e-49
7.21782e-49
5.74431e-49
4.48363e-49
3.26362e-49
2.00504e-49
9.1758e-50
5.39241e-46
4.30835e-46
2.97717e-46
1.92273e-46
1.20943e-46
7.60111e-47
4.85083e-47
3.1779e-47
2.15279e-47
1.51343e-47
1.10373e-47
8.32404e-48
6.46169e-48
5.13321e-48
4.14218e-48
3.35476e-48
2.66326e-48
1.97429e-48
1.23842e-48
5.76612e-49
1.57482e-45
1.34953e-45
9.87516e-46
6.71059e-46
4.43193e-46
2.92009e-46
1.94944e-46
1.33217e-46
9.38381e-47
6.83778e-47
5.15294e-47
4.00315e-47
3.19064e-47
2.5941e-47
2.13611e-47
1.7616e-47
1.42272e-47
1.07386e-47
6.87248e-48
3.25068e-48
3.97818e-45
3.70424e-45
2.89781e-45
2.08963e-45
1.45992e-45
1.0144e-45
7.11438e-46
5.08552e-46
3.73152e-46
2.82163e-46
2.19883e-46
1.7605e-46
1.4413e-46
1.19974e-46
1.00845e-46
8.46939e-47
6.95746e-47
5.34418e-47
3.48624e-47
1.67289e-47
8.83947e-45
9.07166e-45
7.67654e-45
5.93974e-45
4.42617e-45
3.26002e-45
2.40884e-45
1.8037e-45
1.37935e-45
1.08242e-45
8.72121e-46
7.1948e-46
6.04905e-46
5.15443e-46
4.42206e-46
3.78144e-46
3.15836e-46
2.46698e-46
1.63883e-46
7.96806e-47
1.75422e-44
2.01731e-44
1.8835e-44
1.58311e-44
1.26547e-44
9.90023e-45
7.70961e-45
6.04421e-45
4.8132e-45
3.91594e-45
3.25908e-45
2.76795e-45
2.38813e-45
2.08189e-45
1.82216e-45
1.58586e-45
1.34592e-45
1.0681e-45
7.21721e-46
3.55246e-46
7.1515e-283
5.80805e-283
4.48518e-283
3.3642e-283
2.44774e-283
1.72879e-283
1.19015e-283
8.04986e-284
5.40711e-284
3.64772e-284
2.49411e-284
1.73771e-284
1.23509e-284
8.93352e-285
6.54658e-285
4.84632e-285
3.63946e-285
2.83322e-285
2.41566e-285
2.38492e-285
1.28264e-280
1.03684e-280
7.99898e-281
5.99951e-281
4.36601e-281
3.08473e-281
2.12467e-281
1.43799e-281