/*--------------------------------*- C++ -*----------------------------------*\
| =========                 |                                                 |
| \\      /  F ield         | OpenFOAM: The Open Source CFD Toolbox           |
|  \\    /   O peration     | Version:  2.1.0                                 |
|   \\  /    A nd           | Web:      www.OpenFOAM.org                      |
|    \\/     M anipulation  |                                                 |
\*---------------------------------------------------------------------------*/
FoamFile
{
    version     2.0;
    format      ascii;
    class       volScalarField;
    location    "0.03";
    object      k;
}
// * * * * * * * * * * * * * * * * * * * * * * * * * * * * * * * * * * * * * //

dimensions      [0 2 -2 0 0 0 0];

internalField   nonuniform List<scalar> 
6400
(
0.0277001
0.0276983
0.0276984
0.0276988
0.0276995
0.027701
0.0277037
0.0277086
0.0277173
0.0277274
0.0277343
0.0277366
0.0277368
0.027733
0.027724
0.0277158
0.0277119
0.027711
0.0277113
0.0277103
0.0277108
0.0277185
0.0277227
0.0277274
0.027732
0.0277346
0.0277388
0.0277437
0.027747
0.027748
0.027747
0.0277406
0.027735
0.0277313
0.0277237
0.0277144
0.027711
0.0277089
0.0277074
0.0277058
0.027704
0.0277056
0.0277064
0.0277026
0.0277012
0.0277039
0.0277089
0.0277129
0.0277153
0.0277152
0.0277095
0.0276942
0.0276691
0.0276266
0.0275651
0.0274738
0.0273474
0.0271756
0.0269471
0.0266485
0.0262735
0.0258084
0.0252329
0.0245478
0.0237496
0.0228323
0.0218135
0.0207091
0.0195287
0.0182859
0.0170027
0.0157112
0.0144417
0.0132265
0.0120986
0.0110834
0.010188
0.00942474
0.00880414
0.00831721
0.00794361
0.00763066
0.0073482
0.00712795
0.00704441
0.00702128
0.00701909
0.0070239
0.00702445
0.00695415
0.00676754
0.00649288
0.006054
0.00517041
0.00377235
0.00207659
0.0015639
0.00243647
0.00407067
0.00460689
0.00210148
0.00209144
0.00208801
0.0020868
0.00208709
0.00209263
0.00209609
0.00210541
0.00211377
0.00211442
0.00210825
0.00209504
0.00208386
0.00208037
0.00207951
0.00207919
0.00207932
0.00207984
0.00208206
0.00208491
0.00208838
0.00209673
0.00209979
0.00210007
0.00209926
0.00209921
0.00209979
0.00209784
0.00209641
0.0020923
0.00208196
0.00207926
0.00207837
0.0020778
0.00207673
0.00207666
0.00207679
0.00207734
0.00207755
0.00207816
0.00207871
0.00208013
0.00208152
0.00208068
0.0020825
0.00208767
0.00209263
0.00209442
0.00209436
0.00209188
0.00208899
0.00208831
0.00208742
0.00208625
0.00208528
0.00208486
0.00208447
0.00208585
0.00209065
0.0021001
0.00211577
0.00213796
0.00216572
0.00219911
0.00223841
0.00227639
0.00230848
0.00232529
0.00235186
0.00242053
0.00253901
0.00270702
0.00293215
0.00322159
0.00357645
0.00400583
0.00455582
0.00525576
0.00610177
0.0070661
0.00815295
0.00939593
0.0107756
0.0122107
0.0136215
0.0149854
0.0162712
0.017421
0.0182694
0.0186407
0.0187574
0.0185878
0.0175524
0.0156967
0.0130291
0.00978873
0.0071036
0.00577295
0.00482602
0.00411477
0.00110901
0.00110813
0.0011076
0.00110744
0.00110732
0.00110764
0.00110816
0.00110867
0.00110972
0.00110998
0.0011095
0.00110909
0.00110904
0.00110869
0.00110866
0.00110823
0.00110841
0.00110814
0.00110805
0.00110811
0.00110782
0.00110866
0.00110863
0.00110849
0.00110857
0.00110834
0.00110856
0.00110824
0.00110825
0.00110786
0.00110704
0.00110696
0.00110707
0.00110716
0.00110675
0.00110675
0.00110687
0.00110716
0.00110684
0.00110729
0.00110743
0.00110696
0.0011074
0.00110683
0.0011066
0.00110721
0.00110685
0.00110698
0.00110694
0.00110699
0.00110712
0.00110768
0.00110838
0.00111
0.00111275
0.00111703
0.0011234
0.00113384
0.00114768
0.00116477
0.0011827
0.00120215
0.00122999
0.00126818
0.00132028
0.00138438
0.00146796
0.0015722
0.00170312
0.00186912
0.00208249
0.00235783
0.00272212
0.00320166
0.0038269
0.00460171
0.00549353
0.00647166
0.00754127
0.00873048
0.0100162
0.0113657
0.0127813
0.0142636
0.015771
0.0172229
0.0185245
0.01957
0.0200814
0.020265
0.0202381
0.0193465
0.0175028
0.0154062
0.012755
0.00958335
0.00706192
0.00524905
0.00386108
0.00284932
0.001064
0.00106396
0.00106285
0.00106286
0.00106243
0.0010622
0.00106271
0.00106274
0.00106383
0.0010642
0.00106368
0.00106334
0.00106383
0.0010638
0.00106434
0.00106403
0.00106447
0.001064
0.00106384
0.00106393
0.00106316
0.00106396
0.00106324
0.00106287
0.00106314
0.00106341
0.00106411
0.00106428
0.00106453
0.00106391
0.00106362
0.00106376
0.00106481
0.00106455
0.00106419
0.0010638
0.00106354
0.00106363
0.00106374
0.00106444
0.00106471
0.00106406
0.00106462
0.00106397
0.00106355
0.00106415
0.0010631
0.00106338
0.00106339
0.00106351
0.00106428
0.0010646
0.00106544
0.00106611
0.00106859
0.00107116
0.00107413
0.0010794
0.00108496
0.0010934
0.00110616
0.00112335
0.00114946
0.00118602
0.00123372
0.00129783
0.00138417
0.00149561
0.00164005
0.00182522
0.00206846
0.00238976
0.00281896
0.003376
0.00406723
0.00486605
0.00572266
0.00657908
0.00739094
0.00814011
0.0088696
0.00962761
0.0104096
0.0111496
0.0117605
0.0121804
0.0123748
0.0124408
0.0124155
0.0120516
0.011416
0.0107218
0.00974848
0.0085011
0.00719324
0.0056939
0.00435364
0.00324538
0.00258341
0.00231098
0.00104546
0.00104557
0.00104563
0.00104596
0.0010457
0.0010457
0.00104558
0.00104564
0.00104672
0.00104651
0.00104609
0.00104588
0.00104578
0.00104568
0.00104601
0.00104625
0.00104647
0.00104614
0.00104659
0.00104645
0.00104611
0.00104657
0.00104643
0.00104605
0.00104594
0.00104609
0.00104649
0.00104678
0.00104673
0.00104683
0.00104641
0.00104689
0.0010469
0.00104636
0.00104621
0.00104654
0.00104633
0.0010461
0.00104625
0.00104645
0.00104648
0.0010464
0.00104648
0.00104676
0.00104656
0.00104631
0.00104643
0.00104652
0.00104647
0.00104671
0.00104673
0.00104642
0.00104668
0.00104649
0.00104693
0.00104696
0.00104772
0.00104889
0.0010509
0.00105443
0.00106281
0.00107733
0.00109996
0.00113389
0.00117953
0.00124079
0.00131962
0.00141936
0.0015478
0.00171317
0.00193065
0.0022186
0.00259125
0.00304459
0.00354218
0.00402959
0.00447353
0.00491164
0.0053836
0.00586625
0.00628477
0.00658677
0.00679317
0.0069501
0.00701879
0.00703727
0.00698684
0.0067704
0.00649084
0.00615466
0.00571831
0.00528447
0.00479665
0.00421814
0.00369986
0.0032162
0.00275525
0.00247771
0.00236452
0.00236084
0.00103471
0.00103489
0.00103501
0.00103488
0.00103461
0.00103457
0.00103457
0.00103459
0.00103506
0.0010348
0.00103463
0.00103469
0.00103459
0.00103456
0.00103467
0.00103474
0.00103482
0.00103474
0.00103508
0.00103526
0.00103509
0.00103501
0.00103498
0.00103498
0.00103462
0.00103481
0.00103511
0.00103506
0.00103526
0.00103506
0.001035
0.00103503
0.00103483
0.00103463
0.0010346
0.0010349
0.00103461
0.0010346
0.00103471
0.00103462
0.00103462
0.00103466
0.00103452
0.00103499
0.00103498
0.00103506
0.00103522
0.00103516
0.00103522
0.00103503
0.00103496
0.00103474
0.00103478
0.00103468
0.0010343
0.00103425
0.00103456
0.00103491
0.00103599
0.00103855
0.0010453
0.00105735
0.00107688
0.00110576
0.00114526
0.0011976
0.00126528
0.00135268
0.00146551
0.00161095
0.00179762
0.00203231
0.00230514
0.00257873
0.00283531
0.00309693
0.00339105
0.00370916
0.00400278
0.00422215
0.00435332
0.00443353
0.00449414
0.00451466
0.00451479
0.00445323
0.00432191
0.00419111
0.00404918
0.00385471
0.0036486
0.00345381
0.00323186
0.00300851
0.00282411
0.00266017
0.00254195
0.00249247
0.00248874
0.00259353
0.00102929
0.00102955
0.00102944
0.00102918
0.00102928
0.00102924
0.00102911
0.00102931
0.0010291
0.00102921
0.00102923
0.00102901
0.00102906
0.00102934
0.0010292
0.00102905
0.00102916
0.00102925
0.00102912
0.00102909
0.00102914
0.00102912
0.00102896
0.00102911
0.00102892
0.00102889
0.00102915
0.00102931
0.00102921
0.00102905
0.00102899
0.00102897
0.00102897
0.0010291
0.00102899
0.00102879
0.0010288
0.00102914
0.00102906
0.00102913
0.00102922
0.00102926
0.00102912
0.00102922
0.00102948
0.00102963
0.00102973
0.0010293
0.00102955
0.00102941
0.00102915
0.00102926
0.00102912
0.00102899
0.00102867
0.00102889
0.00102899
0.00102959
0.00103064
0.00103325
0.00103887
0.00104922
0.0010666
0.00109145
0.00112544
0.00117062
0.00122995
0.0013068
0.00140518
0.00152895
0.00168113
0.00185688
0.00203774
0.0022194
0.00241528
0.00263852
0.00288901
0.00314526
0.00337008
0.00353113
0.00361946
0.00366337
0.00368216
0.00368696
0.00367503
0.00361928
0.00353981
0.00347073
0.00339828
0.00330204
0.00320422
0.00312087
0.00303685
0.00295547
0.00289408
0.00286295
0.00285181
0.00291039
0.0030685
0.00318706
0.00102717
0.0010268
0.00102717
0.001027
0.00102689
0.00102686
0.00102696
0.00102697
0.00102719
0.00102712
0.00102705
0.00102667
0.00102667
0.00102688
0.00102721
0.00102733
0.00102724
0.00102718
0.00102674
0.00102641
0.00102672
0.00102663
0.00102687
0.00102674
0.00102645
0.0010266
0.00102649
0.00102683
0.00102685
0.00102666
0.00102683
0.00102673
0.00102679
0.00102687
0.00102687
0.00102686
0.00102707
0.00102699
0.00102702
0.00102724
0.00102739
0.00102733
0.00102737
0.00102737
0.00102746
0.00102735
0.0010274
0.00102757
0.00102734
0.00102709
0.00102724
0.00102699
0.00102667
0.00102683
0.00102669
0.00102677
0.00102685
0.00102743
0.00102849
0.00103144
0.0010367
0.00104641
0.00106209
0.00108484
0.00111611
0.00115788
0.00121323
0.00128492
0.00137572
0.00148702
0.00161672
0.00175458
0.00189616
0.00204773
0.00222296
0.00243356
0.00267954
0.0029415
0.00318618
0.00338553
0.00354388
0.00368822
0.00383378
0.0039635
0.00405963
0.0041262
0.00417203
0.00419786
0.00421075
0.00421586
0.00421627
0.0042053
0.00418806
0.00417418
0.00416854
0.00418897
0.00426247
0.00441439
0.00464419
0.0047611
0.00102641
0.00102641
0.00102621
0.00102609
0.00102622
0.00102625
0.00102642
0.00102665
0.00102667
0.00102643
0.00102619
0.00102604
0.00102591
0.00102589
0.00102584
0.00102631
0.00102652
0.0010264
0.00102636
0.00102598
0.00102586
0.00102589
0.00102603
0.00102586
0.00102549
0.00102562
0.00102553
0.00102572
0.00102596
0.00102593
0.00102586
0.00102579
0.00102611
0.00102622
0.00102612
0.00102594
0.00102618
0.00102624
0.00102633
0.00102675
0.00102701
0.0010269
0.00102687
0.00102701
0.00102685
0.0010266
0.00102658
0.00102686
0.0010267
0.00102642
0.00102649
0.0010264
0.00102619
0.00102596
0.00102608
0.0010261
0.00102603
0.00102671
0.00102825
0.00103132
0.00103638
0.00104575
0.00106086
0.00108275
0.00111291
0.00115352
0.00120759
0.00127742
0.00136507
0.00147013
0.00158705
0.00170796
0.0018335
0.00197263
0.00214125
0.00235463
0.00261702
0.00291459
0.00322076
0.00351623
0.00380253
0.00409737
0.0044127
0.00474064
0.00506646
0.00538996
0.00572247
0.00606436
0.0064021
0.00672822
0.00704797
0.00736041
0.00765628
0.0079356
0.00821165
0.00850258
0.00884108
0.00923799
0.00965775
0.00986093
0.00102588
0.00102576
0.00102579
0.00102589
0.00102598
0.00102592
0.00102602
0.00102618
0.00102596
0.0010257
0.00102574
0.00102563
0.00102573
0.00102587
0.00102592
0.00102601
0.00102607
0.00102611
0.0010257
0.00102564
0.00102557
0.00102546
0.00102536
0.00102538
0.00102524
0.00102535
0.00102536
0.00102532
0.00102546
0.00102583
0.00102597
0.00102577
0.00102577
0.00102588
0.00102575
0.00102588
0.00102612
0.00102614
0.00102643
0.00102648
0.00102667
0.00102672
0.00102673
0.00102657
0.00102639
0.00102656
0.00102652
0.00102657
0.00102625
0.00102622
0.0010261
0.00102601
0.00102602
0.00102589
0.00102577
0.00102579
0.00102586
0.00102676
0.00102829
0.00103123
0.00103691
0.00104613
0.00106094
0.00108255
0.00111233
0.0011531
0.00120707
0.0012768
0.00136368
0.0014669
0.00157871
0.00169307
0.00181178
0.00194504
0.00211055
0.00232606
0.002598
0.00291505
0.00325255
0.00359294
0.0039396
0.0043124
0.0047243
0.00516918
0.0056362
0.00612925
0.00666327
0.0072431
0.00786246
0.00852079
0.00922654
0.00997912
0.010768
0.0115901
0.0124522
0.0133518
0.0142651
0.0151135
0.0155169
0.0156244
0.00102571
0.00102564
0.00102587
0.001026
0.00102595
0.00102597
0.00102596
0.00102602
0.0010261
0.00102604
0.00102599
0.00102564
0.00102567
0.00102584
0.00102593
0.00102594
0.00102582
0.00102608
0.001026
0.00102572
0.00102557
0.00102562
0.00102562
0.00102567
0.00102552
0.00102551
0.00102563
0.00102566
0.00102574
0.00102571
0.00102594
0.00102581
0.00102604
0.0010262
0.00102622
0.00102617
0.00102636
0.00102679
0.00102667
0.00102684
0.00102655
0.00102647
0.00102649
0.00102647
0.00102632
0.00102635
0.00102628
0.00102635
0.0010264
0.00102622
0.00102594
0.00102621
0.0010261
0.00102621
0.001026
0.00102592
0.00102614
0.00102682
0.00102843
0.00103143
0.00103682
0.0010462
0.00106123
0.00108298
0.00111314
0.00115401
0.00120827
0.0012783
0.00136578
0.00146982
0.00158299
0.00169837
0.00181777
0.00195101
0.00211588
0.00232956
0.00259819
0.00290951
0.00323833
0.00356562
0.00389437
0.00424385
0.00462667
0.00503558
0.00545806
0.00589652
0.00636476
0.00686676
0.00739535
0.00795054
0.0085426
0.00917351
0.0098339
0.0105188
0.0112312
0.0119852
0.0127787
0.0135814
0.0140615
0.0142346
0.00102604
0.00102617
0.00102601
0.00102605
0.00102583
0.00102578
0.00102622
0.00102638
0.00102612
0.00102652
0.00102636
0.00102613
0.00102597
0.00102588
0.0010258
0.00102606
0.00102603
0.00102571
0.00102578
0.00102569
0.0010256
0.00102567
0.00102605
0.00102603
0.00102603
0.00102617
0.00102626
0.00102625
0.00102632
0.0010265
0.00102648
0.00102642
0.00102677
0.00102661
0.00102655
0.00102651
0.00102675
0.00102674
0.00102678
0.00102696
0.00102707
0.00102703
0.00102664
0.0010266
0.00102622
0.00102636
0.00102658
0.00102645
0.00102639
0.00102664
0.00102643
0.00102641
0.00102641
0.00102601
0.00102598
0.00102601
0.00102616
0.00102696
0.00102876
0.00103148
0.00103674
0.00104631
0.0010619
0.00108443
0.00111492
0.00115626
0.00121094
0.0012816
0.0013706
0.00147775
0.00159783
0.00172139
0.00184788
0.00198613
0.00215184
0.00236034
0.00261511
0.00290057
0.00318755
0.00345439
0.00370074
0.00394264
0.00419129
0.00443678
0.00466073
0.00485897
0.00504152
0.00520962
0.00535192
0.00546591
0.00556509
0.0056582
0.00574363
0.00582838
0.00593711
0.00609288
0.00631701
0.00662734
0.0069998
0.00720918
0.00102676
0.00102658
0.0010265
0.00102655
0.00102653
0.00102661
0.00102667
0.00102671
0.00102692
0.00102682
0.00102665
0.00102667
0.0010268
0.00102682
0.001027
0.00102695
0.00102687
0.00102675
0.00102678
0.00102652
0.00102648
0.00102655
0.00102676
0.00102667
0.00102683
0.00102684
0.0010267
0.00102688
0.00102722
0.00102733
0.00102756
0.00102742
0.00102742
0.00102751
0.00102723
0.00102758
0.00102765
0.00102745
0.00102743
0.00102747
0.00102768
0.00102745
0.00102738
0.00102736
0.00102729
0.0010272
0.00102721
0.00102733
0.00102726
0.00102736
0.00102709
0.00102693
0.00102684
0.00102709
0.00102678
0.00102675
0.00102718
0.00102782
0.0010293
0.00103196
0.0010377
0.00104762
0.00106407
0.00108786
0.00111956
0.0011625
0.00121875
0.00129189
0.00138477
0.00149911
0.00163354
0.00177636
0.00192013
0.00207024
0.00224037
0.00244307
0.00267851
0.002926
0.00314882
0.00331318
0.0034221
0.00350475
0.00357773
0.00361833
0.00363519
0.0036404
0.0036379
0.00361072
0.00356492
0.003524
0.00348443
0.00343953
0.00340177
0.00338295
0.00337606
0.00340136
0.00348048
0.00362226
0.00382456
0.00391917
0.00102877
0.00102862
0.00102847
0.00102834
0.00102859
0.00102846
0.00102859
0.00102903
0.00102921
0.0010291
0.00102886
0.00102876
0.00102901
0.00102896
0.00102895
0.00102885
0.00102895
0.00102918
0.00102917
0.00102931
0.00102897
0.00102894
0.00102941
0.00102944
0.00102914
0.00102915
0.00102927
0.00102936
0.00102935
0.00102972
0.00102977
0.00102976
0.0010296
0.0010298
0.00102971
0.00102947
0.00102959
0.00102948
0.00102949
0.00102936
0.00102924
0.00102925
0.00102926
0.00102896
0.00102936
0.00102941
0.00102918
0.00102912
0.00102915
0.00102918
0.00102899
0.00102909
0.00102911
0.00102907
0.0010288
0.00102899
0.00102946
0.00102982
0.00103112
0.00103404
0.00104022
0.00105119
0.00106942
0.00109532
0.00113027
0.00117658
0.0012372
0.00131595
0.00141679
0.00154438
0.00170208
0.00188525
0.00207173
0.00225279
0.00244165
0.00265556
0.00289644
0.00314365
0.00335909
0.00350297
0.00357182
0.00360703
0.00361956
0.00361751
0.00356887
0.00348597
0.00340933
0.00333334
0.00323268
0.00312485
0.00303095
0.00293508
0.00283599
0.00275523
0.00268983
0.00264811
0.00263003
0.00265842
0.00280176
0.00290462
0.00103442
0.00103445
0.00103448
0.00103429
0.00103458
0.00103424
0.00103423
0.00103476
0.00103464
0.00103478
0.00103467
0.00103466
0.00103475
0.00103475
0.00103497
0.00103449
0.00103451
0.00103448
0.00103458
0.00103502
0.00103499
0.00103477
0.00103519
0.00103512
0.00103528
0.00103514
0.00103526
0.00103544
0.00103571
0.00103579
0.00103545
0.00103528
0.00103524
0.00103502
0.00103513
0.00103507
0.00103487
0.00103482
0.00103453
0.00103507
0.00103491
0.00103466
0.00103481
0.00103475
0.00103446
0.0010344
0.00103447
0.00103457
0.00103468
0.00103459
0.00103462
0.00103454
0.00103461
0.00103422
0.00103433
0.00103414
0.00103441
0.00103503
0.00103655
0.00103987
0.00104686
0.00105954
0.00108
0.00111004
0.0011504
0.0012038
0.00127314
0.00136236
0.00147733
0.00162557
0.00181624
0.00205642
0.00233649
0.00261632
0.00287161
0.00312119
0.00339903
0.00370607
0.00399537
0.00421271
0.0043408
0.00442126
0.00448163
0.00450382
0.00450593
0.00445754
0.004353
0.00424655
0.00410995
0.00392139
0.00372981
0.00352984
0.0032876
0.00304555
0.00283698
0.0026384
0.00248393
0.00241615
0.00240334
0.00247763
0.00104753
0.00104731
0.00104751
0.00104668
0.00104669
0.00104649
0.00104664
0.00104705
0.00104695
0.00104684
0.00104654
0.00104666
0.00104653
0.00104642
0.00104651
0.00104643
0.00104628
0.00104613
0.00104646
0.00104651
0.00104673
0.00104636
0.00104663
0.00104658
0.00104634
0.00104625
0.00104672
0.00104675
0.00104683
0.00104682
0.00104636
0.00104648
0.00104661
0.00104669
0.0010464
0.00104609
0.00104577
0.00104578
0.00104621
0.0010461
0.00104601
0.00104621
0.00104592
0.0010464
0.00104625
0.00104595
0.00104568
0.00104559
0.00104595
0.00104603
0.00104611
0.00104602
0.00104615
0.00104579
0.00104585
0.00104632
0.00104647
0.00104855
0.00105028
0.00105535
0.001064
0.00107913
0.00110229
0.00113647
0.00118274
0.00124441
0.00132416
0.00142538
0.00155457
0.00172155
0.00193985
0.00222887
0.00260244
0.00305533
0.00355318
0.00404089
0.0044791
0.00490112
0.00536032
0.0058489
0.00629709
0.00664303
0.00688019
0.0070735
0.00721863
0.00727379
0.00728591
0.00721102
0.00697265
0.00666967
0.00628784
0.00582439
0.00530273
0.0046551
0.0040199
0.00345654
0.00287328
0.00251007
0.00235273
0.00232951
0.00106889
0.00106714
0.00106769
0.00106681
0.00106576
0.00106635
0.00106616
0.00106638
0.00106684
0.00106682
0.00106581
0.00106648
0.0010658
0.00106534
0.00106466
0.00106499
0.00106481
0.00106479
0.00106505
0.00106472
0.00106519
0.00106403
0.00106433
0.00106397
0.00106411
0.0010637
0.0010641
0.00106419
0.00106335
0.00106389
0.00106319
0.00106394
0.00106425
0.00106385
0.00106347
0.00106377
0.00106401
0.00106418
0.00106397
0.00106294
0.00106314
0.00106336
0.00106333
0.0010639
0.00106374
0.00106395
0.00106376
0.00106311
0.00106328
0.00106336
0.00106318
0.00106217
0.00106288
0.00106377
0.00106457
0.00106732
0.00106984
0.00107565
0.0010811
0.00109102
0.00110355
0.00112212
0.00114775
0.00118389
0.00123184
0.00129668
0.00138253
0.00149396
0.001638
0.00182289
0.00206294
0.00237907
0.00279847
0.0033434
0.00401841
0.00480136
0.00564481
0.00649651
0.00731755
0.00809034
0.00884855
0.00965298
0.0105166
0.0113857
0.0121749
0.012819
0.013306
0.0135569
0.0136446
0.0136334
0.0132186
0.0124313
0.011485
0.0100561
0.00838878
0.00669152
0.00496467
0.00360009
0.0027171
0.00232966
0.00111512
0.0011121
0.00111222
0.00111127
0.00111066
0.00111091
0.00111061
0.00111044
0.0011106
0.00111055
0.00111005
0.00111048
0.00111013
0.00111006
0.00111004
0.00111042
0.0011105
0.00111077
0.00111111
0.00111055
0.00110988
0.00110868
0.00110852
0.00110759
0.00110776
0.00110725
0.00110753
0.00110736
0.00110687
0.00110748
0.00110744
0.00110794
0.00110891
0.00110949
0.0011094
0.00110978
0.00111012
0.00110998
0.00111021
0.00110968
0.00110915
0.00110925
0.00110912
0.00110879
0.0011082
0.00110766
0.00110702
0.00110586
0.00110569
0.00110515
0.00110449
0.00110384
0.00110393
0.00110494
0.00110644
0.00110986
0.0011149
0.00112493
0.00113764
0.00115534
0.00117505
0.00119632
0.00122343
0.00126177
0.00131213
0.00137869
0.00146182
0.00156507
0.00169541
0.00185951
0.00206916
0.00233907
0.00269336
0.00316031
0.00376742
0.00452087
0.00538786
0.00633445
0.00736018
0.00850382
0.00977185
0.0111354
0.012592
0.0141499
0.0157884
0.0174415
0.0190186
0.0204119
0.0213684
0.0217839
0.0219054
0.0215037
0.019702
0.0171634
0.0142297
0.0106103
0.00781042
0.00582272
0.00441567
0.00312762
0.00214938
0.00211033
0.00210085
0.00209345
0.00208786
0.00208109
0.00207873
0.00207803
0.00207818
0.00207844
0.0020786
0.0020799
0.00208282
0.00208693
0.00209289
0.00209946
0.00210551
0.00210925
0.00210982
0.00210743
0.00209764
0.0020852
0.00208056
0.00207838
0.00207747
0.00207694
0.00207727
0.00207754
0.00207868
0.0020811
0.00208436
0.00208879
0.00209449
0.00209978
0.00210094
0.00210163
0.00210184
0.00210212
0.00210383
0.00210286
0.00209718
0.00209419
0.00209172
0.00208687
0.00208426
0.00208282
0.00208151
0.00207975
0.00207923
0.00207847
0.00207801
0.00207727
0.00207585
0.00207463
0.00207323
0.00207218
0.00207178
0.00207249
0.00207553
0.00208308
0.00209719
0.00211835
0.00214584
0.00217916
0.00221705
0.00225711
0.00229095
0.00230925
0.00233299
0.00239649
0.00251009
0.00267348
0.00289221
0.00317276
0.00351396
0.00392495
0.00445119
0.0051243
0.00594704
0.00689569
0.00796994
0.00921384
0.0106165
0.012098
0.013593
0.0151007
0.016593
0.018001
0.0191366
0.0196372
0.0198017
0.0197069
0.0186023
0.0162163
0.0131232
0.00982614
0.00732461
0.00608598
0.00523654
0.00448549
0.027722
0.0277377
0.0277414
0.0277424
0.0277416
0.0277359
0.0277241
0.027714
0.0277059
0.0277023
0.0276992
0.0276989
0.0277024
0.0277098
0.0277144
0.0277163
0.0277197
0.0277256
0.0277329
0.0277392
0.0277412
0.0277412
0.0277383
0.0277316
0.0277206
0.0277087
0.0277009
0.0276981
0.0276976
0.0277006
0.0277031
0.0277086
0.0277171
0.0277205
0.0277237
0.0277294
0.0277344
0.0277386
0.0277423
0.0277457
0.0277495
0.0277522
0.027753
0.0277529
0.0277495
0.0277449
0.0277401
0.0277299
0.0277168
0.0277033
0.0276866
0.0276705
0.0276392
0.0275882
0.027523
0.0274337
0.0273073
0.0271339
0.0269016
0.0266016
0.0262168
0.0257451
0.0251702
0.0244731
0.0236558
0.022724
0.0216882
0.0205653
0.0193673
0.0181087
0.0168144
0.0155117
0.0142348
0.0130142
0.0118797
0.0108603
0.00996487
0.0092005
0.00857795
0.00809554
0.00772691
0.00741423
0.00712177
0.00693839
0.00689743
0.00690175
0.00693591
0.00698873
0.00700949
0.00694976
0.0067263
0.00634697
0.00572892
0.00466305
0.00329514
0.00193467
0.00147102
0.00237888
0.0043123
0.00498173
0.00434731
0.00146671
0.00130903
0.00127748
0.00124515
0.00122065
0.00121254
0.00121121
0.00120746
0.00120645
0.0012046
0.001205
0.00121139
0.00122798
0.00126674
0.00133239
0.00140852
0.00155583
0.00217883
0.00375799
0.00320332
0.00152011
0.00138705
0.00133466
0.001303
0.00129234
0.00129087
0.00127748
0.00127171
0.0012666
0.00126405
0.00126405
0.00127158
0.00129267
0.00133063
0.00139675
0.00148064
0.00164806
0.00223821
0.00350573
0.00237542
0.00159744
0.0014993
0.00145136
0.00141866
0.00140242
0.00137581
0.00136461
0.00135957
0.00135115
0.00134782
0.00134595
0.00135397
0.00137791
0.00142725
0.0014897
0.00157427
0.00173906
0.0022496
0.00322144
0.00221867
0.00173812
0.00166055
0.00158586
0.00155302
0.00151723
0.0015013
0.00149239
0.00147682
0.00146962
0.00144798
0.00144368
0.00145522
0.00148736
0.0015285
0.00159159
0.00166868
0.00182181
0.00223189
0.00290654
0.00226546
0.0019321
0.00186305
0.00178423
0.00175527
0.00172372
0.00171243
0.00169091
0.0016754
0.00164862
0.00160535
0.0015938
0.00159376
0.00162828
0.00166587
0.00171017
0.0017694
0.00188258
0.00217291
0.00254831
0.00243626
0.00222651
0.00217036
0.00210722
0.00208542
0.00205457
0.00204288
0.00200602
0.00198613
0.00191614
0.00184091
0.00180705
0.00179274
0.00179245
0.00180723
0.00181789
0.00184102
0.00187897
0.0020343
0.00214416
0.00292325
0.00283753
0.00279537
0.0027377
0.0027176
0.00267132
0.00265044
0.00257127
0.00251735
0.00236984
0.00224609
0.00213433
0.0020757
0.00204185
0.00199574
0.00195998
0.00189545
0.0018377
0.00181217
0.00172989
0.00448693
0.00445193
0.00440919
0.00438964
0.00439731
0.00440539
0.00432641
0.00407406
0.00384329
0.0034133
0.00316987
0.00285846
0.00270799
0.00247954
0.00229652
0.0020633
0.00187117
0.00171
0.0014904
0.00131068
0.00922041
0.00902177
0.00870756
0.00819078
0.00764735
0.0067068
0.00585657
0.00514045
0.00468599
0.00405536
0.00360329
0.00322783
0.00284478
0.00253692
0.00225637
0.00193369
0.00168564
0.00134945
0.00103935
0.000846844
0.0131846
0.0123858
0.0109025
0.00963211
0.00816387
0.00734729
0.00627128
0.0052954
0.00482521
0.0041845
0.00356916
0.00325288
0.00274767
0.0025064
0.00203837
0.00169732
0.00140661
0.00102705
0.000711443
0.000536703
0.012269
0.0116147
0.0104265
0.00930661
0.00804342
0.00712593
0.00633444
0.00527421
0.00471986
0.00422433
0.00360989
0.00330229
0.00282818
0.002595
0.00221691
0.00190414
0.00162989
0.00127021
0.000969527
0.000769029
0.00691076
0.00681972
0.0067237
0.00648638
0.00627912
0.00585492
0.00539492
0.00487518
0.00424577
0.00382555
0.00353641
0.00310983
0.00290592
0.00255359
0.00237289
0.00208566
0.00192598
0.00172768
0.00146249
0.00125749
0.00359269
0.00353694
0.00345519
0.00337675
0.00333894
0.0032446
0.00320039
0.00308405
0.00302857
0.00276728
0.00258877
0.00241236
0.00232941
0.00225491
0.00217036
0.00209901
0.00198882
0.00192724
0.00186014
0.00172455
0.00262979
0.00253304
0.00247883
0.0024069
0.00237902
0.00232522
0.00230134
0.00223235
0.0021972
0.00209128
0.00200794
0.0019382
0.00191079
0.00190627
0.0019156
0.00192827
0.00195774
0.00200085
0.00214428
0.00219355
0.00229627
0.00209799
0.00204074
0.00196993
0.00194432
0.00190693
0.00189136
0.00185053
0.00182991
0.00177151
0.00171634
0.0016941
0.00168695
0.00170838
0.00175363
0.00179949
0.00187586
0.00201569
0.00234289
0.00265727
0.00218273
0.00183104
0.00176142
0.00168034
0.00165112
0.00162247
0.00161166
0.00159289
0.00157664
0.00155884
0.00151938
0.0015105
0.00151427
0.00155618
0.0016001
0.00167369
0.00177304
0.00196863
0.00243254
0.00307241
0.00218142
0.00169016
0.00161787
0.00153528
0.00149865
0.00146563
0.00145085
0.00144076
0.00142373
0.00141578
0.00140092
0.00139704
0.00140439
0.00143048
0.00148301
0.00155645
0.00165741
0.00186984
0.00246523
0.00343998
0.00244458
0.00155314
0.00145278
0.00140923
0.00136698
0.00134677
0.00132869
0.00132111
0.00131795
0.00130874
0.00130571
0.00130481
0.00131307
0.00133697
0.00138246
0.00145356
0.00155757
0.00177506
0.00246766
0.00377335
0.00347796
0.00149627
0.00136659
0.00131806
0.00129455
0.00126736
0.00125713
0.00124685
0.00124284
0.00123903
0.00123722
0.0012379
0.00124462
0.00126318
0.00130329
0.0013758
0.00146437
0.00166285
0.00241083
0.00407019
0.00476864
0.00144993
0.0012765
0.00124219
0.00122464
0.00120635
0.00119231
0.00118747
0.00118441
0.00118153
0.00118008
0.00118185
0.00118679
0.0012023
0.00124094
0.00130877
0.00139368
0.00157438
0.00235029
0.00433568
0.00398006
0.00375024
0.00374654
0.00374656
0.00374637
0.00374621
0.00374611
0.00374608
0.00374608
0.00374609
0.0037461
0.00374611
0.00374612
0.00374615
0.00374624
0.00374639
0.00374656
0.00374653
0.00375024
0.00398005
0.00438284
0.00375259
0.00374118
0.0037408
0.00374037
0.00373994
0.00373968
0.00373955
0.00373946
0.00373942
0.0037394
0.00373941
0.00373947
0.0037396
0.00373986
0.00374031
0.00374076
0.00374118
0.00375258
0.00438287
0.00485063
0.00375982
0.00373348
0.00373317
0.00373312
0.00373286
0.00373263
0.00373247
0.00373235
0.00373227
0.00373224
0.00373228
0.00373238
0.00373254
0.00373277
0.00373305
0.00373314
0.00373348
0.00375979
0.00485061
0.00536947
0.003775
0.00372521
0.00372463
0.00372521
0.00372508
0.00372471
0.00372432
0.00372397
0.00372371
0.00372358
0.00372362
0.00372386
0.00372425
0.00372472
0.00372497
0.0037245
0.00372514
0.00377493
0.00536946
0.00578242
0.00378412
0.00371497
0.00371457
0.00371608
0.00371643
0.00371618
0.00371582
0.00371554
0.00371537
0.00371531
0.00371536
0.00371553
0.00371581
0.00371608
0.00371585
0.00371446
0.0037149
0.00378399
0.00578247
0.00609335
0.00379369
0.00370593
0.00370517
0.00370766
0.00370893
0.00370955
0.00371004
0.00371052
0.00371095
0.00371127
0.00371141
0.00371128
0.00371078
0.00370986
0.00370822
0.00370545
0.00370598
0.0037933
0.00609359
0.00647229
0.00380318
0.00369648
0.00369689
0.00370153
0.00370489
0.00370734
0.00370905
0.00371025
0.00371102
0.00371154
0.00371174
0.00371143
0.00371037
0.00370804
0.00370387
0.00369834
0.00369705
0.00380305
0.00647294
0.00700315
0.00380343
0.00368441
0.00368977
0.00369831
0.00370467
0.00370848
0.00371113
0.00371306
0.00371472
0.00371592
0.00371608
0.00371524
0.00371328
0.00370951
0.00370293
0.00369259
0.00368554
0.00380357
0.00700402
0.00757474
0.00380101
0.00367194
0.0036842
0.00369773
0.00370791
0.00371458
0.00371946
0.00372344
0.00372698
0.00372865
0.00373009
0.00372877
0.00372483
0.00371747
0.00370498
0.00368848
0.00367357
0.00380131
0.00757556
0.00800516
0.00379415
0.00365844
0.0036771
0.00369619
0.00371051
0.00372213
0.00373012
0.00373647
0.00374121
0.00374548
0.00374796
0.00374707
0.00373989
0.00372566
0.00370599
0.00368267
0.00366052
0.00379463
0.00800615
0.00820646
0.00377634
0.00363519
0.00366114
0.00368731
0.00370684
0.00372167
0.00373162
0.00373769
0.00374254
0.00374592
0.0037475
0.00374827
0.00374215
0.0037245
0.00370005
0.00366862
0.00363784
0.00377678
0.00820799
0.00823771
0.00372695
0.00358295
0.0036158
0.00364942
0.00367551
0.00369265
0.00370209
0.00370779
0.00371466
0.00371769
0.00371878
0.00371842
0.00371315
0.00369407
0.00366414
0.00362527
0.00358635
0.00372724
0.00823981
0.00819416
0.00358454
0.00344027
0.0034758
0.00351275
0.00354256
0.00356347
0.00357162
0.00357382
0.00357627
0.00357695
0.00357796
0.00357716
0.00357546
0.00356059
0.00352869
0.00348613
0.00344416
0.00358492
0.00819665
0.00794062
0.00313875
0.00300746
0.00305346
0.00309641
0.00312584
0.00313915
0.00314151
0.00313806
0.00313045
0.00312719
0.00312613
0.00312819
0.0031319
0.00312712
0.00310587
0.00306162
0.00301065
0.00314012
0.00794427
0.00722501
0.00246365
0.00236279
0.00242148
0.00246009
0.00247944
0.00248417
0.00248219
0.00248211
0.00247547
0.0024705
0.002469
0.00247166
0.00247421
0.00247677
0.00246242
0.00242444
0.0023633