/*--------------------------------*- C++ -*----------------------------------*\
| =========                 |                                                 |
| \\      /  F ield         | OpenFOAM: The Open Source CFD Toolbox           |
|  \\    /   O peration     | Version:  2.1.0                                 |
|   \\  /    A nd           | Web:      www.OpenFOAM.org                      |
|    \\/     M anipulation  |                                                 |
\*---------------------------------------------------------------------------*/
FoamFile
{
    version     2.0;
    format      ascii;
    class       volScalarField;
    location    "0.03";
    object      nut;
}
// * * * * * * * * * * * * * * * * * * * * * * * * * * * * * * * * * * * * * //

dimensions      [0 2 -1 0 0 0 0];

internalField   nonuniform List<scalar> 
6400
(
4.66708e-06
4.66302e-06
4.66122e-06
4.66028e-06
4.65959e-06
4.6592e-06
4.65906e-06
4.65956e-06
4.66047e-06
4.66101e-06
4.66101e-06
4.66068e-06
4.6604e-06
4.65994e-06
4.65897e-06
4.65822e-06
4.65812e-06
4.65849e-06
4.6586e-06
4.65828e-06
4.65887e-06
4.66047e-06
4.66074e-06
4.66082e-06
4.66104e-06
4.66114e-06
4.66147e-06
4.66176e-06
4.66147e-06
4.66073e-06
4.66036e-06
4.66007e-06
4.65987e-06
4.65963e-06
4.65875e-06
4.65768e-06
4.65762e-06
4.65789e-06
4.6584e-06
4.65831e-06
4.65809e-06
4.65886e-06
4.65888e-06
4.65788e-06
4.65813e-06
4.6589e-06
4.65971e-06
4.66026e-06
4.66065e-06
4.6608e-06
4.66029e-06
4.65874e-06
4.65647e-06
4.65244e-06
4.64653e-06
4.63724e-06
4.62414e-06
4.6057e-06
4.58056e-06
4.54661e-06
4.50291e-06
4.44727e-06
4.37644e-06
4.29059e-06
4.18905e-06
4.07045e-06
3.93735e-06
3.79179e-06
3.6346e-06
3.46699e-06
3.29164e-06
3.11321e-06
2.93632e-06
2.76646e-06
2.60998e-06
2.47251e-06
2.35651e-06
2.2664e-06
2.20716e-06
2.17982e-06
2.18282e-06
2.20516e-06
2.24051e-06
2.30124e-06
2.41771e-06
2.57354e-06
2.76249e-06
2.98765e-06
3.25484e-06
3.544e-06
3.83671e-06
4.14708e-06
4.40563e-06
4.2886e-06
3.46353e-06
1.95849e-06
1.35784e-06
1.69124e-06
1.86952e-06
2.05834e-06
4.2041e-06
4.18855e-06
4.18327e-06
4.18153e-06
4.18209e-06
4.19098e-06
4.19689e-06
4.21232e-06
4.22486e-06
4.22563e-06
4.21508e-06
4.19278e-06
4.17493e-06
4.17116e-06
4.17058e-06
4.17052e-06
4.17091e-06
4.17165e-06
4.17444e-06
4.17969e-06
4.18496e-06
4.19671e-06
4.20128e-06
4.20149e-06
4.19995e-06
4.19967e-06
4.20034e-06
4.19712e-06
4.19458e-06
4.18778e-06
4.17234e-06
4.16923e-06
4.16804e-06
4.16747e-06
4.16691e-06
4.16701e-06
4.16709e-06
4.16773e-06
4.16795e-06
4.16853e-06
4.16954e-06
4.17068e-06
4.17254e-06
4.17183e-06
4.17543e-06
4.18258e-06
4.19005e-06
4.19271e-06
4.19257e-06
4.18895e-06
4.18775e-06
4.19089e-06
4.19605e-06
4.20509e-06
4.21779e-06
4.23754e-06
4.2638e-06
4.30101e-06
4.3541e-06
4.42487e-06
4.51515e-06
4.63322e-06
4.78763e-06
4.98228e-06
5.22081e-06
5.49309e-06
5.65955e-06
5.49525e-06
5.33419e-06
5.2465e-06
5.23736e-06
5.29397e-06
5.4188e-06
5.61058e-06
5.8565e-06
6.15781e-06
6.5672e-06
7.09952e-06
7.7214e-06
8.37766e-06
9.06049e-06
9.79364e-06
1.05428e-05
1.12229e-05
1.17693e-05
1.21802e-05
1.2449e-05
1.25531e-05
1.24073e-05
1.19485e-05
1.13746e-05
1.07136e-05
9.71869e-06
8.50815e-06
7.16431e-06
5.64105e-06
4.20016e-06
3.35147e-06
2.79203e-06
3.36525e-06
1.3483e-05
1.35151e-05
1.35287e-05
1.35266e-05
1.35287e-05
1.34988e-05
1.34847e-05
1.34628e-05
1.34208e-05
1.34229e-05
1.34557e-05
1.35045e-05
1.3535e-05
1.35648e-05
1.35651e-05
1.35679e-05
1.35639e-05
1.35605e-05
1.3547e-05
1.35419e-05
1.35358e-05
1.34977e-05
1.34874e-05
1.34897e-05
1.34906e-05
1.34873e-05
1.34671e-05
1.34721e-05
1.34732e-05
1.34941e-05
1.35473e-05
1.35604e-05
1.3563e-05
1.35617e-05
1.3582e-05
1.35749e-05
1.35678e-05
1.35539e-05
1.35578e-05
1.3536e-05
1.35276e-05
1.35345e-05
1.35112e-05
1.35241e-05
1.35212e-05
1.34838e-05
1.34748e-05
1.34593e-05
1.34629e-05
1.34668e-05
1.3489e-05
1.35011e-05
1.35405e-05
1.36015e-05
1.36894e-05
1.38026e-05
1.39951e-05
1.42553e-05
1.4613e-05
1.38122e-05
1.29712e-05
1.14832e-05
1.02452e-05
9.19987e-06
8.3492e-06
7.64734e-06
7.10467e-06
6.6916e-06
6.39815e-06
6.22207e-06
6.16858e-06
6.24667e-06
6.49568e-06
6.93145e-06
7.55611e-06
8.31413e-06
9.11104e-06
9.87896e-06
1.06165e-05
1.13582e-05
1.20828e-05
1.2766e-05
1.34201e-05
1.40523e-05
1.4632e-05
1.51026e-05
1.54127e-05
1.55238e-05
1.53213e-05
1.4971e-05
1.45528e-05
1.37654e-05
1.26434e-05
1.15652e-05
1.01595e-05
8.43327e-06
6.81257e-06
5.29841e-06
4.45541e-06
5.62276e-06
5.66265e-05
4.0707e-05
6.63442e-05
4.29048e-05
5.99707e-05
6.60856e-05
4.6663e-05
6.55724e-05
6.57529e-05
4.12002e-05
5.6568e-05
6.64739e-05
6.66743e-05
6.6561e-05
5.07015e-05
6.68392e-05
4.65303e-05
6.64711e-05
5.95783e-05
3.41761e-05
3.77177e-05
3.05508e-05
6.59025e-05
6.48131e-05
6.56589e-05
6.56312e-05
6.59291e-05
5.50278e-05
4.76131e-05
6.60999e-05
6.63847e-05
6.64378e-05
3.40744e-05
6.64299e-05
3.689e-05
6.66346e-05
6.66169e-05
6.66556e-05
3.79199e-05
6.37076e-05
6.66312e-05
6.62613e-05
5.70012e-05
3.7338e-05
5.82671e-05
3.16783e-05
6.56901e-05
4.05021e-05
5.36867e-05
6.58307e-05
5.0805e-05
6.64009e-05
4.45867e-05
6.75148e-05
3.95995e-05
5.20252e-05
3.05203e-05
3.18406e-05
2.55472e-05
1.89958e-05
1.70494e-05
1.40614e-05
1.22446e-05
1.06844e-05
9.46004e-06
8.51854e-06
7.82092e-06
7.31811e-06
6.9905e-06
6.8185e-06
6.83499e-06
7.11602e-06
7.72226e-06
8.59534e-06
9.61668e-06
1.06276e-05
1.15053e-05
1.21928e-05
1.27016e-05
1.30901e-05
1.34602e-05
1.38759e-05
1.43149e-05
1.46953e-05
1.4941e-05
1.50279e-05
1.49647e-05
1.48085e-05
1.45531e-05
1.40381e-05
1.33907e-05
1.27578e-05
1.18524e-05
1.08187e-05
9.69472e-06
8.33169e-06
7.13018e-06
6.21461e-06
5.60506e-06
5.36174e-06
0.00012102
8.75399e-05
8.36716e-05
6.64996e-05
9.17783e-05
8.56774e-05
0.000200116
7.34322e-05
5.01286e-05
8.22196e-05
7.632e-05
0.000126291
0.000203721
0.000142709
0.000119956
0.000145654
0.000138481
0.000148253
8.93284e-05
2.47695e-05
2.70463e-05
3.52289e-05
5.73839e-05
0.000104802
0.000138964
0.000199011
0.000141269
7.18727e-05
5.84354e-05
3.59776e-05
0.000174377
4.58226e-05
4.79492e-05
0.000204724
7.79547e-05
4.90689e-05
4.48397e-05
5.06147e-05
8.79071e-05
8.61956e-05
0.000207505
0.000152737
6.85687e-05
3.67782e-05
4.17812e-05
0.000147882
4.63381e-05
3.37113e-05
4.67925e-05
8.8308e-05
0.00013179
0.000130958
4.65303e-05
0.000208976
6.15307e-05
0.000179693
3.24609e-05
7.94206e-05
2.41158e-05
3.72869e-05
2.25583e-05
1.76768e-05
1.53712e-05
1.30639e-05
1.13829e-05
1.01089e-05
9.14556e-06
8.43059e-06
7.93817e-06
7.65496e-06
7.69855e-06
8.25096e-06
9.27866e-06
1.05349e-05
1.17177e-05
1.22612e-05
1.26324e-05
1.3077e-05
1.36154e-05
1.40212e-05
1.43168e-05
1.43953e-05
1.42541e-05
1.41041e-05
1.38618e-05
1.35916e-05
1.32616e-05
1.27278e-05
1.21518e-05
1.15111e-05
1.07519e-05
1.00967e-05
9.34173e-06
8.45707e-06
7.72561e-06
7.05563e-06
6.39183e-06
6.07996e-06
5.97269e-06
6.0381e-06
7.62541e-05
5.55543e-05
3.27145e-05
6.48068e-05
0.000137591
0.000218154
8.46564e-05
0.000195008
4.33045e-05
3.01306e-05
0.000203766
0.000138509
0.000122793
0.000102759
0.00019825
9.43913e-05
4.15516e-05
0.000123312
5.59973e-05
2.13792e-05
2.75858e-05
1.86003e-05
6.09869e-05
7.78945e-05
0.000223236
0.000131421
7.19799e-05
8.53453e-05
4.56284e-05
3.20915e-05
4.93267e-05
3.20738e-05
0.000115228
2.73997e-05
1.49755e-05
2.37318e-05
7.66841e-05
3.48822e-05
0.000145441
9.21165e-05
0.00029596
0.000121161
0.000123575
2.98012e-05
0.000190749
3.03624e-05
1.80118e-05
1.4506e-05
2.95994e-05
0.000128382
9.89806e-05
6.47745e-05
8.67646e-05
5.06365e-05
0.00017857
0.000134414
5.49322e-05
8.06852e-05
2.52813e-05
0.000127932
2.49238e-05
2.38533e-05
2.08671e-05
1.71173e-05
1.47099e-05
1.28283e-05
1.14057e-05
1.03535e-05
9.61042e-06
9.20508e-06
9.46421e-06
1.0586e-05
1.14272e-05
1.09562e-05
1.0766e-05
1.0882e-05
1.13031e-05
1.18798e-05
1.23588e-05
1.2555e-05
1.24814e-05
1.2315e-05
1.21728e-05
1.19836e-05
1.17781e-05
1.14459e-05
1.09862e-05
1.05916e-05
1.02051e-05
9.70742e-06
9.20617e-06
8.78012e-06
8.28703e-06
7.80269e-06
7.43553e-06
7.10993e-06
6.8776e-06
6.78014e-06
6.77151e-06
7.03383e-06
3.46914e-05
2.7596e-05
4.62276e-05
9.10055e-05
8.60801e-05
1.71476e-05
5.93083e-05
4.88323e-05
7.29666e-05
6.88885e-05
6.34343e-05
0.0001135
0.000228672
0.000107795
0.00013486
7.51343e-05
0.00010664
4.88939e-05
5.51203e-05
1.4918e-05
1.36268e-05
2.96071e-05
0.000112519
5.964e-05
0.000177338
0.000109111
9.77695e-05
4.77219e-05
4.8147e-05
3.17342e-05
1.90224e-05
4.64416e-05
4.29422e-05
2.09732e-05
6.24394e-05
3.96976e-05
3.98183e-05
5.16737e-05
0.000102552
0.000132761
0.000184933
4.79518e-05
0.000171199
4.37341e-05
3.59855e-05
2.58268e-05
2.16467e-05
0.00021909
2.44653e-05
4.34371e-05
0.00015452
3.21412e-05
2.24048e-05
2.68523e-05
0.000112969
6.19032e-05
0.000109119
4.715e-05
5.43634e-05
7.94108e-05
2.45351e-05
3.40433e-05
2.6907e-05
2.17894e-05
1.8887e-05
1.63857e-05
1.44962e-05
1.30799e-05
1.20607e-05
1.16348e-05
1.2412e-05
1.21772e-05
1.10023e-05
1.03703e-05
1.02142e-05
1.04635e-05
1.09927e-05
1.15976e-05
1.20556e-05
1.22402e-05
1.21787e-05
1.20245e-05
1.18531e-05
1.16726e-05
1.14555e-05
1.1126e-05
1.07611e-05
1.04575e-05
1.01573e-05
9.79752e-06
9.45442e-06
9.17095e-06
8.89179e-06
8.62279e-06
8.41072e-06
8.27178e-06
8.17215e-06
8.23808e-06
8.61011e-06
8.92372e-06
2.71356e-05
0.000178604
3.87194e-05
0.000104444
2.31755e-05
2.98328e-05
2.10871e-05
8.11312e-05
3.70188e-05
4.61509e-05
0.000231804
0.000442755
9.3506e-05
0.000445883
0.000194363
0.000137099
9.11001e-05
4.28669e-05
2.33359e-05
0.000280396
4.31008e-05
9.33431e-05
5.84266e-05
8.22857e-05
0.000124776
7.68231e-05
0.000104173
6.41612e-05
3.50997e-05
0.000115947
1.98112e-05
1.35903e-05
3.27734e-05
3.83965e-05
1.92132e-05
2.74828e-05
4.27033e-05
0.000107507
0.000140378
0.000185698
4.02089e-05
2.05778e-05
5.94369e-05
6.78246e-05
3.64705e-05
7.99635e-05
2.11405e-05
1.45047e-05
3.18255e-05
0.000118772
5.15998e-05
3.35305e-05
0.000126863
3.22204e-05
6.90275e-05
5.00428e-05
0.000107769
4.38314e-05
9.40092e-05
3.88232e-05
3.04767e-05
4.46017e-05
3.03581e-05
2.56912e-05
2.26353e-05
1.97577e-05
1.76479e-05
1.60617e-05
1.4973e-05
1.49396e-05
1.4301e-05
1.21761e-05
1.08948e-05
1.02557e-05
1.01523e-05
1.04891e-05
1.11237e-05
1.1843e-05
1.24315e-05
1.27886e-05
1.30007e-05
1.32118e-05
1.34622e-05
1.36534e-05
1.37176e-05
1.36951e-05
1.36331e-05
1.35246e-05
1.33789e-05
1.32147e-05
1.30434e-05
1.28454e-05
1.26277e-05
1.24135e-05
1.22224e-05
1.20953e-05
1.21046e-05
1.2315e-05
1.28442e-05
1.3144e-05
3.31908e-05
4.86655e-05
6.73815e-05
0.000112677
3.03684e-05
2.49541e-05
2.37957e-05
6.65576e-05
5.27978e-05
4.46517e-05
8.2189e-05
8.29628e-05
0.000410236
0.000101631
0.000406971
0.000449474
7.78815e-05
5.4338e-05
1.35213e-05
1.54546e-05
6.42348e-05
7.32304e-05
2.4093e-05
4.75639e-05
0.000318576
0.000105974
6.37744e-05
7.4647e-05
4.77928e-05
3.5336e-05
4.45157e-05
7.3033e-05
1.96511e-05
2.26449e-05
3.0911e-05
8.61832e-05
9.89911e-05
0.000230285
0.000187864
9.72126e-05
2.2623e-05
3.69508e-05
2.03409e-05
6.46765e-05
5.11412e-05
9.99478e-05
3.10785e-05
2.85618e-05
4.78058e-05
7.70482e-05
9.78421e-05
6.92112e-05
3.39608e-05
0.000152954
4.73221e-05
6.15809e-05
0.000101815
8.08019e-05
9.54637e-05
3.51569e-05
4.05805e-05
4.66333e-05
3.17413e-05
2.79293e-05
2.46664e-05
2.17099e-05
1.96477e-05
1.81437e-05
1.73116e-05
1.79094e-05
1.4403e-05
1.21949e-05
1.08824e-05
1.02548e-05
1.01992e-05
1.06225e-05
1.13856e-05
1.22832e-05
1.3118e-05
1.38262e-05
1.44867e-05
1.52054e-05
1.59973e-05
1.67839e-05
1.75072e-05
1.81994e-05
1.89114e-05
1.96169e-05
2.02547e-05
2.08209e-05
2.13516e-05
2.18311e-05
2.22208e-05
2.25337e-05
2.2813e-05
2.30969e-05
2.34606e-05
2.39558e-05
2.47039e-05
2.42812e-05
6.12995e-05
4.59541e-05
0.000138588
0.000149615
7.0074e-05
2.26992e-05
4.63295e-05
0.000107353
4.57884e-05
7.3721e-05
0.000198621
0.000192655
6.72927e-05
6.55662e-05
0.000108534
0.000446478
7.22318e-05
2.70062e-05
0.000124497
2.19281e-05
4.56687e-05
3.6566e-05
5.01082e-05
6.90406e-05
0.000126702
0.000143438
0.000147787
5.98365e-05
4.82993e-05
7.01057e-05
3.66725e-05
1.30794e-05
4.21656e-05
1.78492e-05
4.13842e-05
6.4435e-05
0.000150399
0.000173779
8.46297e-05
5.72006e-05
2.91507e-05
2.23766e-05
1.87203e-05
4.46602e-05
0.000105449
4.16946e-05
4.44673e-05
4.76069e-05
8.37352e-05
6.02395e-05
9.39676e-05
0.000136898
5.31599e-05
0.000104215
9.85565e-05
4.05005e-05
7.52464e-05
5.89826e-05
7.02721e-05
4.43365e-05
4.46023e-05
4.53193e-05
3.22857e-05
2.85077e-05
2.51792e-05
2.23042e-05
2.03592e-05
1.90157e-05
1.86162e-05
1.80184e-05
1.44609e-05
1.22178e-05
1.08888e-05
1.02615e-05
1.0225e-05
1.06909e-05
1.15218e-05
1.25142e-05
1.34737e-05
1.43436e-05
1.52108e-05
1.61846e-05
1.7273e-05
1.83938e-05
1.95002e-05
2.06402e-05
2.18717e-05
2.31724e-05
2.44921e-05
2.58382e-05
2.72434e-05
2.86812e-05
3.00956e-05
3.1479e-05
3.28477e-05
3.41786e-05
3.54157e-05
3.64354e-05
3.67725e-05
3.54999e-05
9.7757e-05
3.99029e-05
0.00017396
0.000161804
0.000128155
6.19082e-05
8.39475e-05
4.81407e-05
9.15162e-05
4.92232e-05
5.61124e-05
0.000165428
9.84451e-05
0.000165031
8.90797e-05
0.0001784
0.000128707
3.83748e-05
1.9234e-05
2.71372e-05
6.74521e-05
5.13298e-05
3.70511e-05
8.01483e-05
0.000143682
0.000212804
0.000173572
0.000149566
4.40781e-05
4.49048e-05
2.66438e-05
4.17571e-05
2.24492e-05
6.95424e-05
2.34169e-05
8.08024e-05
0.000123637
6.16613e-05
0.000161587
6.8025e-05
3.71898e-05
2.06562e-05
4.14689e-05
4.45281e-05
0.000187706
3.19451e-05
5.73866e-05
4.73562e-05
2.24965e-05
3.83668e-05
0.000273568
6.3178e-05
8.48399e-05
3.99453e-05
3.07909e-05
3.04983e-05
5.32401e-05
3.95663e-05
5.21906e-05
5.79596e-05
4.00241e-05
4.43949e-05
3.22345e-05
2.80163e-05
2.4936e-05
2.20981e-05
2.01659e-05
1.88277e-05
1.84238e-05
1.80306e-05
1.44803e-05
1.22372e-05
1.09044e-05
1.02701e-05
1.02249e-05
1.06786e-05
1.14942e-05
1.24655e-05
1.33969e-05
1.42255e-05
1.50378e-05
1.59427e-05
1.6949e-05
1.79713e-05
1.89573e-05
1.99526e-05
2.10185e-05
2.21313e-05
2.32381e-05
2.43525e-05
2.55167e-05
2.67147e-05
2.78964e-05
2.90518e-05
3.01906e-05
3.13284e-05
3.24569e-05
3.35552e-05
3.41969e-05
3.35952e-05
3.83372e-05
6.02353e-05
0.000132076
4.3394e-05
0.000100544
9.09434e-05
0.000123535
4.21154e-05
3.641e-05
2.97447e-05
7.93963e-05
0.000194023
6.79679e-05
4.201e-05
0.000191551
6.52292e-05
7.0786e-05
6.56333e-05
5.28964e-05
0.000224917
0.000173715
0.000121023
5.4245e-05
0.000130023
0.000441391
0.000283063
0.000182528
0.000296404
7.20717e-05
3.13062e-05
5.13838e-05
4.77131e-05
5.23993e-05
2.19761e-05
2.85809e-05
0.000154495
3.6544e-05
1.76116e-05
3.53446e-05
9.71789e-05
6.72862e-05
3.60449e-05
7.43108e-05
4.00101e-05
0.000229176
6.12749e-05
2.43909e-05
4.23426e-05
3.14774e-05
3.24169e-05
6.26394e-05
6.24729e-05
3.07206e-05
3.47869e-05
5.18637e-05
3.87787e-05
7.372e-05
6.62061e-05
4.88454e-05
8.45883e-05
3.28691e-05
4.20331e-05
3.22082e-05
2.6785e-05
2.39368e-05
2.11467e-05
1.91454e-05
1.76894e-05
1.68776e-05
1.77858e-05
1.44817e-05
1.22726e-05
1.09464e-05
1.02983e-05
1.0217e-05
1.06109e-05
1.13399e-05
1.21935e-05
1.29652e-05
1.35818e-05
1.41159e-05
1.46716e-05
1.52673e-05
1.58233e-05
1.62727e-05
1.66312e-05
1.69404e-05
1.719e-05
1.73357e-05
1.73845e-05
1.73919e-05
1.73803e-05
1.73328e-05
1.72732e-05
1.72751e-05
1.73886e-05
1.76615e-05
1.81428e-05
1.89551e-05
1.94523e-05
2.56601e-05
7.31368e-05
8.59911e-05
3.17165e-05
3.03284e-05
0.000105494
0.000128752
0.00012788
9.34325e-05
0.000115361
0.000112247
5.87636e-05
0.000100445
0.000114375
4.50795e-05
2.44773e-05
3.88956e-05
0.000120314
0.000445118
0.000108659
3.43494e-05
1.81503e-05
3.24959e-05
0.000174591
0.000152711
0.000249478
0.000407182
0.000440723
0.000150681
5.9072e-05
4.1742e-05
0.000235046
0.000150051
6.02847e-05
0.000122269
5.19741e-05
2.27619e-05
8.70876e-05
2.10739e-05
7.61798e-05
5.12337e-05
9.56672e-05
3.9103e-05
4.00668e-05
0.000332701
0.000140737
5.14978e-05
2.7859e-05
3.42927e-05
3.8533e-05
5.07244e-05
8.6462e-05
7.55919e-05
3.26973e-05
5.97272e-05
7.80289e-05
3.55697e-05
4.86273e-05
1.95973e-05
7.93383e-05
3.25866e-05
3.40284e-05
3.06259e-05
2.45254e-05
2.161e-05
1.89835e-05
1.69905e-05
1.54978e-05
1.44718e-05
1.44658e-05
1.44146e-05
1.22987e-05
1.10008e-05
1.03301e-05
1.01854e-05
1.04764e-05
1.10649e-05
1.17357e-05
1.22568e-05
1.25027e-05
1.25546e-05
1.25687e-05
1.25941e-05
1.25156e-05
1.2353e-05
1.21676e-05
1.19889e-05
1.1751e-05
1.14618e-05
1.12009e-05
1.09622e-05
1.07116e-05
1.04787e-05
1.03011e-05
1.01516e-05
1.00845e-05
1.01657e-05
1.04089e-05
1.09071e-05
1.11691e-05
3.05508e-05
6.99997e-05
2.56576e-05
2.96841e-05
3.18851e-05
6.00692e-05
0.000285579
4.3227e-05
2.42321e-05
2.41663e-05
7.63838e-05
0.000296863
4.83619e-05
0.000110268
3.27777e-05
0.000103825
3.95421e-05
7.06804e-05
0.000117606
4.52137e-05
1.9789e-05
3.15522e-05
2.02995e-05
4.41039e-05
0.000158089
0.000366621
0.000261374
0.000153319
0.000141303
4.65949e-05
2.91542e-05
4.42827e-05
6.52245e-05
4.24299e-05
5.28189e-05
0.000421211
2.85236e-05
1.65617e-05
2.36835e-05
0.000101716
0.000110566
7.20655e-05
6.55375e-05
0.000309409
0.00012598
8.71254e-05
0.000106017
4.31832e-05
2.58215e-05
4.41362e-05
9.6985e-05
9.3081e-05
7.54643e-05
2.15668e-05
0.000170384
5.54911e-05
1.74177e-05
3.18304e-05
1.77726e-05
4.46085e-05
3.98004e-05
2.6714e-05
2.56837e-05
2.08914e-05
1.80518e-05
1.57595e-05
1.39985e-05
1.26797e-05
1.1732e-05
1.13522e-05
1.21403e-05
1.23324e-05
1.1155e-05
1.04884e-05
1.02756e-05
1.04701e-05
1.09551e-05
1.15304e-05
1.19671e-05
1.21061e-05
1.19869e-05
1.18057e-05
1.16135e-05
1.14142e-05
1.10864e-05
1.06772e-05
1.03263e-05
1.00116e-05
9.64233e-06
9.26563e-06
8.94741e-06
8.64423e-06
8.34209e-06
8.09833e-06
7.90117e-06
7.75744e-06
7.67478e-06
7.67698e-06
8.03113e-06
8.31255e-06
3.52587e-05
2.60974e-05
7.60835e-05
1.84526e-05
4.55749e-05
0.00013265
7.2437e-05
2.83046e-05
0.000286006
3.06011e-05
5.06384e-05
5.94363e-05
0.000194181
0.000109894
3.27856e-05
2.04878e-05
4.49181e-05
0.000127577
0.000114312
3.3478e-05
3.28976e-05
1.99241e-05
1.83547e-05
7.32327e-05
7.04618e-05
0.000355097
0.000130748
0.000136001
0.000102601
5.01175e-05
0.000130541
2.80476e-05
3.84471e-05
0.000204737
3.98627e-05
7.43012e-05
6.24133e-05
2.43067e-05
0.000362242
3.19019e-05
3.74011e-05
0.000200363
5.58309e-05
4.85932e-05
0.000113188
0.0001362
0.000199188
0.000107094
5.73453e-05
7.30513e-05
0.000369169
0.000113907
3.16446e-05
0.000120526
2.39976e-05
2.95865e-05
2.54501e-05
5.42617e-05
6.77365e-05
2.18126e-05
3.39929e-05
2.20049e-05
1.98047e-05
1.6603e-05
1.42929e-05
1.25255e-05
1.11836e-05
1.01886e-05
9.48642e-06
9.1089e-06
9.37741e-06
1.0483e-05
1.15745e-05
1.11024e-05
1.08779e-05
1.09286e-05
1.12816e-05
1.18201e-05
1.22882e-05
1.24794e-05
1.23875e-05
1.22059e-05
1.20441e-05
1.18414e-05
1.16226e-05
1.13041e-05
1.08902e-05
1.05275e-05
1.01442e-05
9.6628e-06
9.19272e-06
8.76089e-06
8.25193e-06
7.7547e-06
7.37767e-06
7.00951e-06
6.74082e-06
6.62864e-06
6.61516e-06
6.8216e-06
2.64006e-05
4.26353e-05
2.90397e-05
0.000173247
5.80382e-05
0.000149672
0.000211124
3.26056e-05
2.21855e-05
3.45216e-05
0.000127656
0.000160229
6.75179e-05
6.58022e-05
7.69976e-05
4.4836e-05
6.57184e-05
0.000149648
6.07762e-05
8.72402e-05
3.58639e-05
1.93996e-05
4.03663e-05
6.29788e-05
0.00011126
0.000149664
0.000116559
0.000152331
0.000197516
4.58703e-05
3.17523e-05
4.2685e-05
4.9558e-05
3.44602e-05
4.83891e-05
0.000123518
0.000114389
0.000158058
3.68943e-05
4.99525e-05
6.5473e-05
5.42687e-05
0.000202465
7.59523e-05
0.000102
0.000141808
8.68299e-05
0.000202741
0.000203844
8.73654e-05
0.000205494
6.16315e-05
4.31943e-05
2.83436e-05
2.1191e-05
7.7389e-05
0.000224846
1.88279e-05
0.000158863
1.81863e-05
2.2926e-05
1.76562e-05
1.5151e-05
1.29749e-05
1.13187e-05
1.00666e-05
9.12287e-06
8.42517e-06
7.94107e-06
7.66662e-06
7.70666e-06
8.24307e-06
9.24863e-06
1.04799e-05
1.16502e-05
1.23325e-05
1.26747e-05
1.3069e-05
1.35709e-05
1.38781e-05
1.4192e-05
1.44606e-05
1.43397e-05
1.42038e-05
1.40479e-05
1.37786e-05
1.34949e-05
1.3138e-05
1.25917e-05
1.20008e-05
1.13098e-05
1.0586e-05
9.84404e-06
8.88706e-06
8.04016e-06
7.32846e-06
6.50837e-06
6.1066e-06
5.96444e-06
6.02547e-06
2.42513e-05
6.67158e-05
6.73162e-05
4.17647e-05
6.71917e-05
6.26875e-05
4.88048e-05
5.04871e-05
6.77146e-05
3.56781e-05
6.74461e-05
5.67283e-05
6.73181e-05
4.91753e-05
6.74555e-05
4.33816e-05
6.63907e-05
6.15984e-05
4.38456e-05
6.62164e-05
2.78311e-05
6.63092e-05
6.66738e-05
4.28029e-05
6.27015e-05
6.66833e-05
6.66119e-05
4.89819e-05
6.67793e-05
3.71303e-05
6.61719e-05
5.6066e-05
4.74858e-05
6.60491e-05
6.62342e-05
6.63796e-05
6.64129e-05
4.06253e-05
6.63284e-05
6.62372e-05
4.0047e-05
4.82553e-05
6.64784e-05
4.68049e-05
6.30115e-05
6.6338e-05
6.65221e-05
6.65089e-05
6.67502e-05
6.26602e-05
6.66674e-05
5.77272e-05
4.10516e-05
6.72261e-05
4.47493e-05
3.17525e-05
6.33953e-05
2.12873e-05
3.67876e-05
1.82306e-05
1.72463e-05
1.44891e-05
1.24542e-05
1.0851e-05
9.59075e-06
8.62831e-06
7.90969e-06
7.39506e-06
7.05839e-06
6.88153e-06
6.88424e-06
7.14431e-06
7.71977e-06
8.56268e-06
9.55657e-06
1.05505e-05
1.14189e-05
1.21061e-05
1.26239e-05
1.30274e-05
1.34117e-05
1.38564e-05
1.43549e-05
1.48318e-05
1.52049e-05
1.54411e-05
1.55589e-05
1.55355e-05
1.54013e-05
1.51492e-05
1.46251e-05
1.3976e-05
1.3254e-05
1.20717e-05
1.07497e-05
9.25753e-06
7.76948e-06
6.63602e-06
5.75874e-06
5.39798e-06
1.32938e-05
1.34372e-05
1.34485e-05
1.34979e-05
1.3548e-05
1.3564e-05
1.35842e-05
1.35946e-05
1.35818e-05
1.35815e-05
1.35904e-05
1.35594e-05
1.35369e-05
1.35197e-05
1.34983e-05
1.34815e-05
1.34622e-05
1.34511e-05
1.34431e-05
1.34608e-05
1.34993e-05
1.35616e-05
1.357e-05
1.35908e-05
1.35886e-05
1.35948e-05
1.35785e-05
1.35739e-05
1.35735e-05
1.35548e-05
1.35401e-05
1.35226e-05
1.34934e-05
1.34776e-05
1.34825e-05
1.34798e-05
1.3475e-05
1.34812e-05
1.34697e-05
1.34889e-05
1.35146e-05
1.35164e-05
1.35151e-05
1.35276e-05
1.35401e-05
1.35435e-05
1.35505e-05
1.35641e-05
1.35553e-05
1.35537e-05
1.35475e-05
1.35659e-05
1.36022e-05
1.36258e-05
1.36883e-05
1.37897e-05
1.39703e-05
1.41824e-05
1.45629e-05
1.50823e-05
1.3322e-05
1.18468e-05
1.05156e-05
9.41786e-06
8.5159e-06
7.79992e-06
7.23315e-06
6.80135e-06
6.49701e-06
6.31041e-06
6.24569e-06
6.31242e-06
6.54304e-06
6.96065e-06
7.56348e-06
8.30173e-06
9.07906e-06
9.82367e-06
1.0528e-05
1.12397e-05
1.19664e-05
1.26795e-05
1.33803e-05
1.40783e-05
1.4755e-05
1.53573e-05
1.58275e-05
1.61184e-05
1.61215e-05
1.58449e-05
1.54669e-05
1.49051e-05
1.37623e-05
1.24701e-05
1.09883e-05
9.03338e-06
7.32819e-06
5.82054e-06
4.90509e-06
6.03036e-06
4.27937e-06
4.21711e-06
4.20172e-06
4.19018e-06
4.18168e-06
4.17233e-06
4.17093e-06
4.17041e-06
4.1704e-06
4.17075e-06
4.17133e-06
4.1728e-06
4.17551e-06
4.18072e-06
4.19035e-06
4.20189e-06
4.21158e-06
4.2171e-06
4.21773e-06
4.21351e-06
4.19684e-06
4.17682e-06
4.17013e-06
4.16871e-06
4.16871e-06
4.16893e-06
4.16944e-06
4.17006e-06
4.17146e-06
4.17355e-06
4.1782e-06
4.18467e-06
4.19276e-06
4.20127e-06
4.2028e-06
4.2034e-06
4.20337e-06
4.20353e-06
4.2058e-06
4.20421e-06
4.19512e-06
4.19022e-06
4.18609e-06
4.17889e-06
4.17591e-06
4.17435e-06
4.17295e-06
4.17249e-06
4.17434e-06
4.17495e-06
4.17661e-06
4.17863e-06
4.184e-06
4.19282e-06
4.20393e-06
4.22091e-06
4.24744e-06
4.28276e-06
4.33415e-06
4.40338e-06
4.49535e-06
4.6118e-06
4.76429e-06
4.96189e-06
5.20367e-06
5.4849e-06
5.70959e-06
5.55334e-06
5.38982e-06
5.29599e-06
5.28373e-06
5.34e-06
5.46343e-06
5.65214e-06
5.88988e-06
6.17926e-06
6.57453e-06
7.0954e-06
7.71662e-06
8.38491e-06
9.08478e-06
9.85048e-06
1.0652e-05
1.13994e-05
1.20347e-05
1.25681e-05
1.29872e-05
1.32537e-05
1.32603e-05
1.28243e-05
1.2224e-05
1.15728e-05
1.0526e-05
9.05306e-06
7.46605e-06
5.83354e-06
4.43827e-06
3.60614e-06
3.04854e-06
3.42869e-06
4.66328e-06
4.66199e-06
4.661e-06
4.66033e-06
4.66019e-06
4.65945e-06
4.65794e-06
4.65708e-06
4.65615e-06
4.65579e-06
4.65601e-06
4.65666e-06
4.6576e-06
4.65904e-06
4.65989e-06
4.66014e-06
4.66037e-06
4.66071e-06
4.6611e-06
4.66136e-06
4.661e-06
4.66081e-06
4.66055e-06
4.65988e-06
4.65869e-06
4.6575e-06
4.65654e-06
4.65628e-06
4.65679e-06
4.65767e-06
4.6583e-06
4.65961e-06
4.6611e-06
4.66124e-06
4.66132e-06
4.66192e-06
4.66231e-06
4.66244e-06
4.6621e-06
4.66154e-06
4.66144e-06
4.66153e-06
4.66134e-06
4.661e-06
4.6606e-06
4.66032e-06
4.66013e-06
4.65935e-06
4.6584e-06
4.65753e-06
4.65629e-06
4.65576e-06
4.6534e-06
4.64855e-06
4.64248e-06
4.63388e-06
4.62093e-06
4.60229e-06
4.57664e-06
4.5428e-06
4.4976e-06
4.44105e-06
4.37052e-06
4.28275e-06
4.17799e-06
4.05696e-06
3.92098e-06
3.7722e-06
3.61189e-06
3.44142e-06
3.26401e-06
3.08344e-06
2.9051e-06
2.73416e-06
2.57638e-06
2.43824e-06
2.32274e-06
2.23332e-06
2.17522e-06
2.15174e-06
2.16031e-06
2.18885e-06
2.22958e-06
2.31449e-06
2.46507e-06
2.65964e-06
2.90388e-06
3.20799e-06
3.56647e-06
3.9713e-06
4.38306e-06
4.79347e-06
5.0695e-06
4.77296e-06
3.69364e-06
2.16772e-06
1.45761e-06
1.79619e-06
2.05323e-06
2.26104e-06
5.66737e-06
6.80642e-07
8.64291e-07
1.17503e-06
1.48929e-06
1.78938e-06
2.0899e-06
2.38399e-06
2.65402e-06
2.91404e-06
3.13897e-06
3.35184e-06
3.5665e-06
3.79564e-06
4.07754e-06
4.42446e-06
4.76525e-06
5.27196e-06
6.10459e-06
2.2667e-06
2.83461e-06
9.19814e-07
9.11899e-07
1.08858e-06
1.32905e-06
1.60891e-06
1.91105e-06
2.18114e-06
2.47233e-06
2.75114e-06
2.96045e-06
3.1672e-06
3.40078e-06
3.66229e-06
3.9563e-06
4.3108e-06
4.67906e-06
5.24687e-06
6.0088e-06
2.29662e-06
2.90364e-06
1.36124e-06
1.37956e-06
1.37224e-06
1.55238e-06
1.78416e-06
2.01619e-06
2.30893e-06
2.61673e-06
2.92853e-06
3.02222e-06
3.12688e-06
3.31203e-06
3.55682e-06
3.86527e-06
4.18978e-06
4.54383e-06
5.09749e-06
5.78982e-06
2.33519e-06
3.49854e-06
2.02139e-06
2.06892e-06
1.95686e-06
2.13488e-06
2.22799e-06
2.5174e-06
2.82344e-06
3.14384e-06
3.62056e-06
3.38309e-06
3.33031e-06
3.4044e-06
3.60209e-06
3.86291e-06
4.17866e-06
4.52082e-06
5.05733e-06
5.52596e-06
2.37617e-06
4.27708e-06
2.98381e-06
3.04318e-06
2.81956e-06
3.15359e-06
3.16941e-06
3.58612e-06
3.85915e-06
4.43633e-06
4.70821e-06
4.24859e-06
3.96802e-06
3.81422e-06
3.87606e-06
4.07241e-06
4.33264e-06
4.65039e-06
5.06001e-06
5.22307e-06
2.40323e-06
5.42249e-06
4.39772e-06
4.44152e-06
4.18767e-06
4.66575e-06
4.81324e-06
5.42523e-06
5.83223e-06
6.75073e-06
6.56014e-06
5.80647e-06
5.21907e-06
4.7813e-06
4.67848e-06
4.73196e-06
4.85432e-06
5.00366e-06
5.04726e-06
4.81006e-06
2.39901e-06
7.17267e-06
6.53821e-06
6.62122e-06
6.42329e-06
7.16952e-06
7.55713e-06
8.72562e-06
9.55209e-06
1.11094e-05
9.94644e-06
8.78959e-06
7.72536e-06
7.0988e-06
6.75164e-06
6.41728e-06
6.12288e-06
5.69337e-06
5.06572e-06
4.30785e-06
2.37691e-06
1.05195e-05
1.06023e-05
1.08838e-05
1.09878e-05
1.23092e-05
1.33124e-05
1.53804e-05
1.74451e-05
1.77402e-05
1.59106e-05
1.45761e-05
1.29338e-05
1.17722e-05
1.03118e-05
8.8772e-06
7.26044e-06
5.89379e-06
4.76263e-06
3.61617e-06
2.29876e-06
1.80096e-05
1.90358e-05
1.89593e-05
1.94501e-05
2.14784e-05
2.31076e-05
2.06896e-05
1.87414e-05
1.73279e-05
1.50968e-05
1.34288e-05
1.18337e-05
1.01087e-05
8.71885e-06
7.41288e-06
6.00333e-06
4.92049e-06
3.69735e-06
2.65851e-06
1.92719e-06
2.6697e-05
2.79635e-05
2.76858e-05
2.76808e-05
2.41444e-05
2.27653e-05
1.98796e-05
1.73103e-05
1.60002e-05
1.39928e-05
1.19599e-05
1.07851e-05
8.89647e-06
7.95161e-06
6.266e-06
5.0212e-06
4.01178e-06
2.8405e-06
1.9277e-06
1.4094e-06
2.51674e-05
2.63142e-05
2.5978e-05
2.6277e-05
2.46638e-05
2.29481e-05
2.08963e-05
1.79584e-05
1.63075e-05
1.47237e-05
1.26086e-05
1.13972e-05
9.49866e-06
8.48877e-06
6.98217e-06
5.71647e-06
4.65408e-06
3.45246e-06
2.50728e-06
1.83534e-06
1.54054e-05
1.62333e-05
1.61056e-05
1.63441e-05
1.80034e-05
1.91966e-05
2.10294e-05
1.97288e-05
1.74765e-05
1.58968e-05
1.47277e-05
1.27637e-05
1.14756e-05
9.62326e-06
8.41404e-06
6.83395e-06
5.75619e-06
4.66686e-06
3.52116e-06
2.32287e-06
9.54995e-06
9.31016e-06
9.40477e-06
9.23977e-06
1.0218e-05
1.07607e-05
1.22921e-05
1.36218e-05
1.44376e-05
1.26062e-05
1.10815e-05
9.7007e-06
8.89294e-06
8.25919e-06
7.61731e-06
6.98959e-06
6.19424e-06
5.27243e-06
4.32285e-06
2.46819e-06
6.81253e-06
6.07697e-06
6.09172e-06
5.78766e-06
6.37933e-06
6.56121e-06
7.46966e-06
7.96586e-06
9.13438e-06
7.99475e-06
7.0204e-06
6.19678e-06
5.61172e-06
5.42989e-06
5.37961e-06
5.40367e-06
5.42644e-06
5.29095e-06
4.91776e-06
2.52591e-06
5.23969e-06
4.16265e-06
4.17532e-06
3.87218e-06
4.27557e-06
4.34328e-06
4.84741e-06
5.12364e-06
5.86454e-06
5.62493e-06
4.97747e-06
4.51843e-06
4.19186e-06
4.1362e-06
4.29835e-06
4.53913e-06
4.87496e-06
5.26518e-06
5.37408e-06
2.55205e-06
4.18162e-06
2.84269e-06
2.87322e-06
2.62581e-06
2.91082e-06
2.89747e-06
3.25117e-06
3.4721e-06
3.93003e-06
4.18191e-06
3.76892e-06
3.57165e-06
3.50655e-06
3.63478e-06
3.86237e-06
4.19052e-06
4.59611e-06
5.22253e-06
5.69428e-06
2.53478e-06
3.46591e-06
1.94752e-06
1.97756e-06
1.85728e-06
2.01047e-06
2.10222e-06
2.35395e-06
2.64295e-06
2.9106e-06
3.31503e-06
3.15215e-06
3.15158e-06
3.25981e-06
3.4653e-06
3.7574e-06
4.09397e-06
4.48428e-06
5.16063e-06
5.95001e-06
2.49677e-06
2.95979e-06
1.31518e-06
1.31673e-06
1.31927e-06
1.47693e-06
1.69386e-06
1.92269e-06
2.19764e-06
2.49252e-06
2.76646e-06
2.88337e-06
3.01885e-06
3.21785e-06
3.46376e-06
3.75675e-06
4.09842e-06
4.49785e-06
5.18278e-06
6.17532e-06
2.45642e-06
3.05998e-06
8.98707e-07
8.9242e-07
1.0728e-06
1.32183e-06
1.5804e-06
1.86357e-06
2.13307e-06
2.41431e-06
2.68248e-06
2.89944e-06
3.11737e-06
3.3482e-06
3.59821e-06
3.89354e-06
4.26285e-06
4.63822e-06
5.28486e-06
6.28163e-06
2.41625e-06
6.21816e-06
6.74142e-07
8.47213e-07
1.14933e-06
1.47237e-06
1.77664e-06
2.06339e-06
2.34545e-06
2.61103e-06
2.85798e-06
3.07957e-06
3.29194e-06
3.49607e-06
3.71447e-06
3.98839e-06
4.33505e-06
4.6964e-06
5.29617e-06
6.37732e-06
2.38766e-06
1.23694e-06
0.000116216
0.000293046
0.000330809
0.000334796
0.000335354
0.000335358
0.00033535
0.000335355
0.000335357
0.000335357
0.000335355
0.000335351
0.000335359
0.000335357
0.000334798
0.000330812
0.00029306
0.000116227
1.23693e-06
1.3597e-06
6.86876e-05
0.000221083
0.000310229
0.000331018
0.000334532
0.000335263
0.00033529
0.000335268
0.00033526
0.000335258
0.000335263
0.000335284
0.00033526
0.000334528
0.000331016
0.000310237
0.000221088
6.86928e-05
1.35969e-06
1.51033e-06
5.33726e-05
0.000177643
0.000281373
0.00032257
0.000332552
0.000334617
0.000335103
0.000335146
0.000335136