/*--------------------------------*- C++ -*----------------------------------*\
| =========                 |                                                 |
| \\      /  F ield         | OpenFOAM: The Open Source CFD Toolbox           |
|  \\    /   O peration     | Version:  2.1.0                                 |
|   \\  /    A nd           | Web:      www.OpenFOAM.org                      |
|    \\/     M anipulation  |                                                 |
\*---------------------------------------------------------------------------*/
FoamFile
{
    version     2.0;
    format      ascii;
    class       volScalarField;
    location    "0.03";
    object      omega;
}
// * * * * * * * * * * * * * * * * * * * * * * * * * * * * * * * * * * * * * //

dimensions      [0 0 -1 0 0 0 0];

internalField   nonuniform List<scalar> 
6400
(
1514.28
1514.21
1514.21
1514.22
1514.23
1514.27
1514.33
1514.46
1514.68
1514.94
1515.13
1515.2
1515.2
1515.12
1514.89
1514.67
1514.56
1514.53
1514.54
1514.51
1514.52
1514.71
1514.83
1514.95
1515.07
1515.14
1515.25
1515.37
1515.46
1515.49
1515.48
1515.32
1515.17
1515.07
1514.88
1514.63
1514.54
1514.49
1514.45
1514.4
1514.35
1514.39
1514.41
1514.32
1514.28
1514.34
1514.47
1514.57
1514.65
1514.65
1514.53
1514.15
1513.54
1512.48
1510.94
1508.64
1505.43
1501.05
1495.19
1487.45
1477.65
1465.39
1450.04
1431.49
1409.53
1383.79
1354.56
1322.07
1286.39
1247.66
1206.28
1163.05
1118.86
1074.76
1032.05
991.959
955.148
922.531
895.063
872.867
855.47
840.757
827.276
816.317
811.987
810.75
810.597
810.806
810.857
807.573
798.51
784.829
762.654
715.802
634.096
517.358
476.003
543.368
651.6
683.394
499.865
499.323
499.134
499.051
499.053
499.317
499.439
499.822
500.318
500.38
500.167
499.679
499.137
498.751
498.615
498.545
498.53
498.566
498.764
498.82
499.019
499.611
499.798
499.839
499.829
499.851
499.91
499.828
499.79
499.62
498.99
498.715
498.644
498.576
498.387
498.357
498.38
498.435
498.459
498.534
498.547
498.752
498.861
498.746
498.75
499.135
499.428
499.54
499.54
499.38
498.835
498.297
497.472
496.124
494.401
491.998
488.877
484.968
480.156
474.612
468.594
461.441
452.357
441.386
428.747
414.41
399.355
384.197
370.826
364.908
363.293
364.064
371.565
389.103
416.902
455.796
501.861
549.053
595.466
642.007
690.252
741.611
797.456
854.41
908.873
964.165
1021.79
1080.54
1139.31
1197.24
1254.11
1308.04
1344.97
1359.02
1357.04
1287.14
1127.53
965.275
793.304
631.896
82.2519
81.9917
81.8703
81.8712
81.8493
82.0547
82.1793
82.3505
82.6869
82.6929
82.4558
82.1276
81.9387
81.733
81.7288
81.6804
81.718
81.7181
81.7929
81.8282
81.8438
82.1372
82.1973
82.173
82.1736
82.1764
82.3165
82.2619
82.2557
82.0999
81.7163
81.6314
81.6247
81.6388
81.4864
81.5293
81.5803
81.6854
81.6387
81.8028
81.8651
81.788
81.9614
81.8413
81.8421
82.1138
82.1422
82.2465
82.2211
82.2017
82.0756
82.0436
81.857
81.6086
81.2861
80.9287
80.2708
79.538
78.5382
76.9377
74.3174
71.1222
69.8095
69.5729
70.1248
72.8511
79.3278
91.1938
110.578
139.665
177.519
220.463
265.545
311.924
359.545
408.112
457.098
504.842
550.606
595.429
640.78
687.543
736.117
786.579
838.355
890.022
940.354
988.837
1034.83
1077.4
1115.26
1141.64
1153.08
1155.07
1122.27
1046.11
933.772
781.737
625.069
506.748
16.0151
16.016
16.0202
16.0368
16.0834
16.0732
16.1301
16.2072
16.1792
16.2395
16.1399
15.9964
15.9556
15.9823
15.9371
15.9193
15.9629
16.007
15.999
15.9903
16.0145
16.1056
16.1335
16.1445
16.1919
16.2028
16.1403
16.1452
16.1297
16.0954
16.022
16.0113
16.0425
16.0251
16.0602
15.9647
15.9651
15.9571
16.0051
15.9916
15.9792
16.0586
16.0192
16.0609
16.0741
16.1471
16.1836
16.211
16.2376
16.1553
16.1194
16.0329
15.9481
15.7908
15.6039
15.1999
14.8013
14.2773
13.4535
13.072
13.0305
13.3885
14.8418
18.1071
23.8851
33.0154
46.5252
65.52
91.0788
123.499
161.469
203.27
247.597
293.071
337.64
379.331
416.972
450.921
482.726
514.367
547.331
582.024
617.408
651.609
683.11
711.471
736.745
758.479
775.295
783.981
787.203
786.802
772.537
748.833
714.136
658.893
593.954
522.217
460.907
431.013
5.14826
5.13346
5.16882
5.18598
5.20399
5.24366
5.22485
5.22026
5.23234
5.18547
5.20386
5.23374
5.13339
5.07942
5.08824
5.14168
5.09782
5.09945
5.17044
5.25227
5.28762
5.25119
5.29935
5.30931
5.25469
5.25645
5.21399
5.21097
5.18092
5.18538
5.24008
5.22888
5.16298
5.1111
5.12541
5.1586
5.1196
5.0769
5.10175
5.06239
5.04314
5.08156
5.08524
5.1782
5.21198
5.17327
5.23024
5.22934
5.22081
5.2313
5.21648
5.17244
5.13416
5.00769
4.87681
4.7523
4.67107
4.41131
4.32663
4.34479
4.71219
5.71261
7.63616
10.9271
16.2535
24.5623
36.9205
54.3569
77.7646
107.209
141.848
180.507
221.122
261.099
297.555
328.644
354.133
375.594
395.407
415.605
436.67
457.564
476.576
492.773
506.34
517.768
526.848
531.938
534.148
534.67
531.843
523.384
513.465
498.771
478.909
455.835
431.057
407.52
395.888
390.99
2.8509
2.86752
2.88707
2.89352
2.90183
2.89726
2.88834
2.89193
2.88014
2.89287
2.8986
2.89495
2.86375
2.8468
2.83524
2.85484
2.86831
2.88518
2.89297
2.9109
2.93893
2.91615
2.9141
2.92671
2.93653
2.94399
2.92939
2.92423
2.90732
2.91328
2.91641
2.90235
2.86483
2.86817
2.87942
2.84599
2.82575
2.81069
2.79807
2.79271
2.82118
2.85009
2.85808
2.90272
2.91398
2.89714
2.90848
2.90336
2.89473
2.88127
2.87125
2.86842
2.85205
2.81824
2.74681
2.71999
2.70952
2.65409
2.67684
2.75933
3.11119
3.93213
5.45526
8.13796
12.6374
19.8762
30.9392
46.9502
68.7941
96.5325
129.254
165.267
201.723
235.367
263.359
284.591
300.011
312.225
323.88
336.293
348.783
360.01
369.195
376.735
383.322
389.069
393.395
395.7
396.778
397.089
396.322
393.366
389.991
385.574
379.813
374.148
369.598
367.613
367.531
368.722
2.39028
2.42245
2.42142
2.41389
2.40785
2.41453
2.3918
2.38584
2.36971
2.37997
2.39196
2.38375
2.3856
2.40771
2.3891
2.38175
2.41252
2.42489
2.41512
2.41966
2.44268
2.41941
2.41248
2.43292
2.43905
2.44571
2.44796
2.44262
2.44286
2.41529
2.41723
2.41055
2.40821
2.4179
2.397
2.36416
2.35918
2.35766
2.35839
2.35117
2.39712
2.43368
2.42733
2.43666
2.42638
2.42328
2.40686
2.38633
2.38984
2.374
2.37104
2.38151
2.38909
2.33439
2.28774
2.25847
2.22086
2.20782
2.25246
2.35466
2.64974
3.30764
4.58165
6.90112
10.8852
17.3999
27.5181
42.3245
62.6754
88.6244
119.238
152.488
185.211
214.015
236.462
252.165
262.811
271.199
279.545
288.486
297.195
304.658
310.65
315.865
320.81
325.3
328.946
331.889
334.566
337.028
338.912
340.299
341.535
342.751
344.094
346.111
348.967
353.286
356.384
357.145
2.32722
2.32804
2.32828
2.31049
2.31884
2.30627
2.31236
2.29562
2.31307
2.32629
2.32485
2.31883
2.30286
2.30302
2.31298
2.32797
2.32719
2.341
2.3237
2.33204
2.34492
2.36219
2.34637
2.34499
2.38372
2.38321
2.3587
2.35071
2.32256
2.30849
2.32543
2.33361
2.3167
2.32036
2.30456
2.27656
2.27188
2.28525
2.27669
2.33325
2.3548
2.39315
2.40539
2.40232
2.41558
2.35753
2.32259
2.32534
2.29323
2.28911
2.29684
2.28871
2.27255
2.25572
2.15727
2.06652
2.00819
1.99588
2.01502
2.13386
2.43365
3.03919
4.21492
6.38756
10.1379
16.301
25.9031
40.0171
59.4045
84.0841
113.049
144.101
174.043
199.668
218.961
232.008
240.885
248.375
256.298
264.731
272.592
279.161
284.782
290.295
295.943
301.289
306.021
310.387
314.73
319.027
323.25
327.377
331.657
336.261
341.058
346.33
352.136
358.457
361.579
362.226
2.30461
2.31125
2.30418
2.29245
2.29093
2.3045
2.30775
2.30554
2.30969
2.31663
2.30973
2.2909
2.29225
2.28437
2.29272
2.28335
2.29291
2.32026
2.35719
2.35003
2.32138
2.31627
2.33603
2.31931
2.32778
2.33829
2.31953
2.33761
2.33963
2.27608
2.24747
2.24699
2.2836
2.27088
2.25898
2.24353
2.26473
2.29074
2.34341
2.37062
2.38951
2.37892
2.39191
2.38111
2.3665
2.31112
2.26902
2.25968
2.25343
2.24905
2.25669
2.25305
2.24215
2.16858
2.08185
2.00023
1.9236
1.91317
1.92973
2.03374
2.31587
2.90884
4.07497
6.20521
9.87811
15.9141
25.3074
39.1111
58.0424
82.0871
110.188
140.055
168.483
192.363
209.943
221.665
229.853
237.283
245.523
254.317
262.484
269.468
275.839
282.452
289.393
296.161
302.594
309.14
316.08
323.148
330.09
337.152
344.555
352.165
359.954
368.127
376.847
385.627
390.94
392.957
2.30225
2.29569
2.29183
2.29312
2.29705
2.30356
2.30433
2.3051
2.27569
2.26408
2.27525
2.28529
2.27102
2.27394
2.27247
2.298
2.31205
2.30544
2.2925
2.28181
2.2718
2.29657
2.29042
2.28954
2.29768
2.31959
2.31522
2.29932
2.28099
2.26848
2.25132
2.28525
2.26151
2.27953
2.25305
2.24426
2.2743
2.28841
2.34048
2.35276
2.37054
2.37542
2.35281
2.33234
2.33036
2.31506
2.24246
2.21883
2.21819
2.21766
2.21964
2.22059
2.19833
2.1658
2.07093
1.9779
1.89841
1.88539
1.90268
2.00852
2.28304
2.87751
4.04261
6.16484
9.82694
15.8317
25.1666
38.861
57.6123
81.4114
109.171
138.574
166.39
189.547
206.41
217.573
225.485
232.938
241.399
250.491
258.999
266.451
273.507
281.028
289.033
296.957
304.653
312.575
321.02
329.775
338.671
347.932
357.791
368.184
379.088
390.649
402.79
414.803
421.97
424.672
2.30033
2.29685
2.29414
2.30323
2.31342
2.31541
2.29239
2.29101
2.30724
2.31055
2.29102
2.27881
2.28272
2.28091
2.29563
2.27497
2.27402
2.31311
2.33004
2.27312
2.26138
2.27312
2.29609
2.31083
2.32614
2.31807
2.3196
2.29913
2.26908
2.2427
2.24862
2.25678
2.27742
2.28901
2.31807
2.30176
2.29548
2.33465
2.38017
2.3997
2.38599
2.36984
2.36538
2.36591
2.34876
2.30377
2.27622
2.27124
2.28117
2.25679
2.24359
2.20942
2.17413
2.14128
2.09111
1.98654
1.92614
1.91669
1.93646
2.0392
2.31558
2.90487
4.06878
6.20138
9.87877
15.8975
25.2408
38.9423
57.702
81.5178
109.32
138.788
166.701
189.969
206.934
218.151
226.044
233.406
241.723
250.649
258.972
266.194
272.975
280.201
287.914
295.526
302.817
310.275
318.242
326.478
334.785
343.388
352.515
362.07
372.01
382.566
393.713
404.749
411.193
413.59
2.26272
2.25776
2.2552
2.25436
2.25759
2.26354
2.2848
2.28905
2.28411
2.3168
2.33419
2.33644
2.28591
2.2503
2.24766
2.26952
2.28735
2.27822
2.26255
2.26758
2.26938
2.30532
2.30489
2.3159
2.32453
2.3658
2.33831
2.31893
2.29194
2.29614
2.30347
2.31214
2.3456
2.33623
2.32224
2.31691
2.31476
2.34795
2.34098
2.34675
2.35052
2.38126
2.38204
2.37002
2.34143
2.30552
2.28427
2.27444
2.28487
2.30609
2.30271
2.22023
2.1905
2.14342
2.10072
2.01025
1.96551
1.96041
1.99436
2.10505
2.39451
2.988
4.16679
6.31563
10.0235
16.0824
25.4889
39.2811
58.187
82.215
110.334
140.263
168.812
192.86
210.614
222.445
230.612
237.879
245.855
254.341
262.168
268.725
274.527
280.395
286.413
292.159
297.603
303.061
308.722
314.412
319.981
325.553
331.374
337.424
343.68
350.394
357.672
365.287
369.282
370.608
2.26687
2.25515
2.24023
2.25152
2.2636
2.30411
2.31589
2.29236
2.31063
2.3162
2.31989
2.31755
2.28938
2.29526
2.29207
2.30532
2.27721
2.27372
2.29804
2.29625
2.3027
2.31074
2.3142
2.32058
2.33133
2.32977
2.321
2.33
2.3232
2.3338
2.38168
2.40502
2.41273
2.37029
2.36635
2.38306
2.39255
2.36201
2.36951
2.35757
2.37864
2.37616
2.37696
2.4011
2.36229
2.31635
2.29645
2.31668
2.31983
2.31001
2.27939
2.26773
2.21141
2.19791
2.173
2.08567
2.04941
2.05239
2.12039
2.24398
2.53425
3.1523
4.37343
6.5851
10.4043
16.6239
26.2589
40.3719
59.723
84.3619
113.325
144.435
174.545
200.407
219.96
233.197
242.073
249.326
256.903
264.997
272.578
278.848
284.081
289.107
294.277
299.187
303.438
307.268
311.026
314.617
317.857
321.102
324.636
328.408
332.565
337.287
342.373
347.996
350.648
350.895
2.34798
2.35838
2.34198
2.30713
2.31133
2.32238
2.33912
2.35639
2.37424
2.40059
2.39871
2.38275
2.3939
2.34461
2.33757
2.33136
2.32484
2.32545
2.3489
2.39663
2.42728
2.45281
2.46055
2.44329
2.43615
2.44855
2.49124
2.50261
2.47047
2.45656
2.4828
2.4926
2.49009
2.49172
2.45975
2.44408
2.44564
2.45199
2.42439
2.41358
2.40471
2.43642
2.43317
2.41786
2.4339
2.41355
2.39703
2.38951
2.39645
2.39875
2.38647
2.32668
2.31256
2.31914
2.25998
2.23135
2.24367
2.26073
2.34844
2.47178
2.775
3.45688
4.77489
7.18343
11.2877
17.8829
28.0595
42.9105
63.2235
89.1063
119.64
152.87
185.721
214.789
237.616
253.633
264.393
272.64
280.695
289.356
297.977
305.533
311.668
316.931
321.915
326.489
330.159
332.946
335.26
337.252
338.751
339.542
339.961
340.222
340.435
341.364
342.685
346.284
348.862
349.426
2.79956
2.82139
2.78468
2.76173
2.76023
2.75477
2.76693
2.77132
2.77988
2.80622
2.83032
2.81045
2.81696
2.81882
2.83341
2.81707
2.79349
2.78991
2.81067
2.85428
2.86188
2.90222
2.90901
2.91258
2.907
2.9151
2.91707
2.9338
2.94493
2.9288
2.94922
2.95099
2.94068
2.91279
2.91981
2.90893
2.89114
2.88198
2.85592
2.87391
2.8871
2.87169
2.86645
2.85842
2.8662
2.84403
2.83279
2.83081
2.82306
2.81695
2.80257
2.80147
2.78178
2.75004
2.71043
2.69458
2.70806
2.70342
2.77221
2.924
3.26189
4.09979
5.69084
8.48916
13.1328
20.4286
31.564
47.6214
69.381
96.9733
129.531
165.398
201.866
235.654
263.985
285.598
301.288
313.54
325.139
337.574
350.418
362.223
372.102
380.346
387.685
394.33
399.717
403.377
405.154
405.823
405.736
402.909
398.404
392.737
384.536
376.403
368.49
364.502
363.309
363.204
4.9742
5.03406
4.96303
4.97517
5.0152
4.96834
4.95747
4.9541
4.93739
4.9644
5.01821
5.00266
5.05686
5.14912
5.20479
5.16437
5.15673
5.10401
5.07236
5.1189
5.14994
5.17268
5.16528
5.25939
5.21176
5.2259
5.17744
5.19083
5.29998
5.26916
5.28448
5.28057
5.2355
5.21522
5.26507
5.24694
5.17584
5.14708
5.12569
5.18955
5.22646
5.17924
5.16594
5.12572
5.08355
5.08081
5.11322
5.15727
5.13113
5.10841
5.09072
5.10391
5.04599
4.90982
4.82977
4.72936
4.65416
4.52601
4.47901
4.53938
4.85322
5.84196
7.78525
11.1784
16.5959
24.9204
37.2817
54.7436
77.9941
107.159
141.486
179.742
220.083
259.877
296.38
327.661
353.389
375.019
394.985
415.458
437.163
459.191
479.801
497.999
513.857
527.904
539.9
548.868
553.748
555.771
555.962
550.198
538.674
523.806
499.977
471.66
441.474
411.042
394.459
386.611
16.0149
15.9953
15.8608
15.8634
15.8614
15.7744
15.7841
15.8131
15.755
15.7613
15.8024
15.7821
15.8322
15.8239
15.7831
15.9398
16.0385
16.1022
16.0772
16.0794
16.0252
16.0465
15.9632
15.9415
15.9202
15.9515
15.9746
15.978
15.9233
16.0361
16.0671
16.1177
16.1311
16.1069
16.0562
16.0256
16.0211
16.0692
16.0409
16.0474
16.0411
16.0355
15.9952
16.0039
16.0319
16.0382
15.991
15.9845
15.9293
15.9443
15.9475
15.9438
15.9503
15.8237
15.6354
15.3324
14.9786
14.3215
13.6946
13.2223
13.1424
13.4319
14.7815
17.9488
23.6486
32.6955
46.0973
64.9615
90.2401
122.248
159.746
200.957
244.67
289.552
333.726
375.205
412.774
446.663
478.366
509.925
543.033
578.341
615.115
651.592
686.175
718.327
748.144
775.261
798.45
815.499
823.653
826.552
822.167
797.265
760.769
701.783
626.944
542.507
471.822
431.58
83.883
82.763
82.7025
82.3288
81.9799
81.901
81.7572
81.6826
81.7714
81.7692
81.679
81.8972
82.008
82.1071
82.2359
82.3662
82.49
82.578
82.6528
82.5022
82.2176
81.7513
81.6885
81.4955
81.5213
81.4463
81.5649
81.5802
81.5459
81.7041
81.7897
81.9324
82.1813
82.3214
82.2841
82.3296
82.3841
82.3352
82.4231
82.2656
82.071
82.067
82.0651
81.965
81.8456
81.7853
81.6962
81.5282
81.5687
81.5384
81.5271
81.3688
81.1581
81.0912
80.8314
80.4845
79.8046
79.3191
78.1192
76.6023
74.1649
70.9109
69.1504
68.8078
69.2105
71.7367
77.9943
89.5934
108.587
137.145
174.368
216.603
260.875
306.332
352.984
400.548
448.614
495.688
540.889
585.096
629.843
676.142
724.509
775.173
827.91
881.547
934.802
987.186
1038.21
1086.7
1131.16
1168.58
1186.78
1192.4
1166.91
1082.28
968.932
822.237
658.033
518.645
502.266
500.422
499.997
499.609
499.288
498.782
498.384
498.279
498.316
498.338
498.307
498.442
498.818
499.181
499.455
499.645
499.933
500.167
500.227
500.161
499.814
499.231
498.921
498.567
498.35
498.195
498.214
498.203
498.311
498.641
498.865
499.153
499.548
499.796
499.892
499.984
500.038
500.084
500.22
500.179
499.909
499.781
499.683
499.383
499.115
498.957
498.811
498.443
498.097
497.844
497.536
497.118
496.14
494.806
493.166
490.931
487.771
483.915
478.877
473.065
466.525
459.333
450.401
439.18
426.055
411.513
396.036
380.451
366.339
359.617
357.68
358.062
364.544
380.858
407.296
444.743
489.791
536.076
581.485
626.891
673.773
723.487
777.53
834.25
888.875
943.978
1001.73
1061.1
1120.64
1178.66
1234.54
1286
1314.14
1323.03
1314.1
1243.83
1109.77
968.243
814.531
656.483
1514.8
1515.22
1515.32
1515.35
1515.33
1515.2
1514.9
1514.63
1514.4
1514.31
1514.23
1514.21
1514.3
1514.49
1514.61
1514.67
1514.75
1514.9
1515.09
1515.26
1515.32
1515.32
1515.25
1515.09
1514.81
1514.5
1514.27
1514.2
1514.18
1514.25
1514.32
1514.46
1514.68
1514.77
1514.86
1515
1515.13
1515.24
1515.34
1515.43
1515.52
1515.6
1515.62
1515.62
1515.54
1515.43
1515.31
1515.06
1514.72
1514.38
1513.95
1513.55
1512.78
1511.49
1509.84
1507.59
1504.38
1499.95
1493.99
1486.22
1476.15
1463.69
1448.34
1429.45
1406.92
1380.72
1350.92
1317.79
1281.44
1242.04
1200.09
1156.25
1111.52
1066.92
1023.62
983.013
945.854
912.864
885.006
862.754
845.39
830.526
816.394
806.952
804.711
804.84
806.424
808.973
810.023
807.272
796.426
777.494
745.724
687.361
603.623
506.238
468.19
539.116
666.056
704.71
646.184
278.708
157.424
107.735
84.853
69.1683
60.089
53.8956
48.0372
45.0941
42.1998
40.7974
39.6934
39.5067
41.9423
52.8407
83.7638
164.148
356.917
632.153
549.476
293.33
193.903
138.215
106.327
87.2864
75.8913
65.3987
60.0925
55.2658
52.4729
50.8889
50.0867
50.0161
53.4701
66.9119
102.366
186.673
372.49
616.172
467.218
287.856
218.71
160.256
129.421
107.698
91.2478
81.4363
73.9752
68.2813
65.6562
63.8526
63.3357
63.7829
68.9259
85.7052
125.837
212.66
388.545
597.655
403.258
278.933
232.847
176.754
150.941
124.413
110.198
98.4713
89.2238
84.6261
80.9033
79.3753
79.0066
80.7249
88.826
110.057
154.672
242.399
403.893
576.444
358.001
273.743
240.984
191.969
170.411
144.133
131.756
117.435
110.4
104.1
101.03
99.7521
99.5797
103.325
115.98
142.017
190.352
275.315
416.022
551.31
330.845
273.426
248.641
208.347
190.506
166.485
155.388
141.564
135.208
129.002
126.473
125.577
126.411
135.402
152.878
182.888
232.14
308.689
422.927
521.537
317.868
279.046
261.217
228.833
214.68
194.458
185.144
173.313
167.994
163.819
162.562
162.579
168.901
182.512
202.496
233.062
277.344
338.367
420.666
489.18
326.378
302.533
291.217
265.987
254.727
237.924
230.159
220.757
216.643
214.53
214.101
217.517
227.215
240.456
258.699
284.184
317.481
359.045
412.148
454.055
366.838
349.889
336.607
315.73
305.572
290.243
283.068
274.283
270.431
268.624
268.325
272.766
281.42
290.97
304.386
322.103
342.575
364.978
390.952
411.714
398.105
379.569
368.697
347.971
338.126
322.74
315.462
305.91
301.573
299.047
298.427
301.607
308.849
315.207
325.306
338.031
350.619
361.572
369.063
380.803
386.706
368.393
356.978
336.126
326.122
310.524
303.137
293.691
289.428
286.906
286.303
289.747
297.745
305.698
317.509
333.098
350.206
367.914
386.684
404.19
341.936
325.846
312.314
290.71
280.227
264.086
256.542
247.11
242.942
240.649
240.12
243.647
253.225
265.356
282.016
305.19
334.592
370.201
415.343
449.403
312.394
285.06
271.994
245.046
233.026
214.811
206.337
195.198
190.234
186.704
185.666
186.483
194.711
208.929
229.192
259.123
301.016
356.525
430.305
488.737
309.903
269.642
250.954
217.407
202.508
180.97
170.991
157.74
151.674
145.709
143.438
142.748
145.234
156.834
176.504
208.397
258.259
331.829
436.027
525.248
324.405
265.937
240.839
199.892
181.812
157.427
146.099
131.748
125.073
118.158
115.066
113.81
113.714
119.404
135.153
164.367
215.785
301.242
435.961
559.045
352.135
266.781
233.642
184.534
162.881
136.676
124.213
109.99
102.431
96.5885
92.7111
91.1829
90.865
93.5446
104.25
129.147
178.03
269.027
427.19
587.686
398.22
272.493
226.274
170.745
144.87
119.141
104.531
93.4726
83.8565
79.0486
75.3723
73.6804
73.1943
74.3543
81.5253
101.762
146.504
238.428
414.324
611.917
466.417
281.123
211.767
155.19
123.91
102.681
86.6906
76.8835
69.983
63.9888
61.3134
59.4124
58.7669
59.0072
63.6301
80.0045
120.398
210.936
399.6
633.087
559.765
286.993
188.218
133.57
102.969
83.5722
72.2655
62.2806
56.8238
52.0259
48.9766
47.5152
46.3323
46.1268
49.3415
62.5225
98.1282
185.737
383.791
651.362
668.24
272.819
152.597
103.832
81.3997
66.5623
57.0245
51.2325
46.0392
42.9467
39.7347
38.2031
37.2688
37.0508
39.0975
49.7324
80.8232
164.066
368.539
667.278
646.565
32.2696
12.7848
11.3254
11.19
11.1709
11.1705
11.1707
11.1705
11.1704
11.1705
11.1706
11.1708
11.1706
11.1709
11.19
11.3254
12.7842
32.2665
646.564
670.821
54.6328
16.9221
12.0582
11.2996
11.1796
11.1545
11.1532
11.1537
11.1538
11.1538
11.1537
11.1532
11.1543
11.1795
11.2995
12.0578
16.9217
54.6285
670.823
698.094
70.4447
21.0168
13.2677
11.5731
11.2249
11.1549
11.1383
11.1365
11.1366
11.1365
11.1362
11.1379
11.1547
11.2248
11.5731
13.2674
21.013
70.4169
698.093
726.909
87.7087
25.51
14.7561
12.0823
11.3478
11.1694
11.1252
11.1161
11.1145
11.1142
11.1154
11.1248
11.1691
11.3472
12.0816
14.7545
25.5044
87.6704
726.909
748.846
102.654
29.3758
16.1196
12.6127
11.5349
11.2104
11.1256
11.0993
11.0932
11.0931
11.0993
11.1255
11.2104
11.5353
12.6117
16.1161
29.3626
102.596
748.849
765.108
114.239
32.4866
17.2857
13.1017
11.7235
11.2701
11.1338
11.095
11.0834
11.0838
11.096
11.1345
11.2698
11.7224
13.1007
17.2758
32.4532
114.13
765.121
784.795
128.479
36.0922
18.582
13.6578
11.9577
11.3542
11.158
11.0996
11.0842
11.0849
11.1015
11.1606
11.3575
11.9575
13.6503
18.5739
36.0569
128.365
784.827
811.44
148.365
40.8222
20.2397
14.4094
12.3239
11.523
11.2183
11.1207
11.0954
11.0973
11.125
11.2231
11.5324
12.3391
14.4181
20.2269
40.8256
148.387
811.482
838.848
169.463
46.0449
22.1746
15.3475
12.8189
11.7779
11.3482
11.1819
11.1342
11.1374
11.1914
11.3583
11.7876
12.8411
15.3907
22.2172
46.0961
169.6
838.886
858.6
185.478
50.7829
24.0706
16.2725
13.2729
11.9922
11.4695
11.2818
11.2279
11.2396
11.3092
11.497
12.0043
13.2836
16.3264
24.1794
50.8285
185.521
858.646
867.453
195.145
54.249
25.4724
16.8517
13.4623
12.0619
11.521
11.3346
11.2922
11.3053
11.3684
11.5546
12.0803
13.4734
16.883
25.5799
54.2743
195.023
867.524
868.686
201.939
55.9116
25.9644
16.9507
13.4625
12.0385
11.4967
11.3182
11.2867
11.2992
11.3572
11.5355
12.0545
13.4594
16.9835
26.0685
55.9752
201.826
868.782
866.491
207.376
56.0613
25.8539
16.7521
13.2199
11.8126
11.3078
11.1551
11.1319
11.1417
11.1857
11.3354
11.826
13.2078
16.7664
25.952
56.1514
207.427
866.606
853.973
209.199
55.1443
24.84
15.6738
12.1864
10.913
10.5365
10.4665
10.469
10.4601
10.4476
10.5126
10.9077
12.1572
15.6243
24.8981
55.2681
209.378
854.146
819.35
207.767
51.1672
21.3355
12.5552
9.47493
8.4836
8.31287
8.40176
8.49145
8.4642
8.33111
8.23529
8.4341
9.4391
12.4683
21.2834
51.3596
208.002
819.52
788.131
201.458
44.8386
17.2076
9.48669
6.82795
5.98238
5.87296
5.96738
6.08825
6.05802
5.90274
5.80075
5.9705
6.83906
9.46781
17.1491
45.0006
201.759
788.177
766.834
194.426
40.1531
14.2674
7.36121
4.94184
4.16764
4.03178
4.09723
4.19494
4.15104
4.0423
4.0097
4.19096
4.97483
7.3486
14.2785
40.226
194.566
766.825
753.854
189.918
36.987
12.5868
6.04149
3.785
3.05269
2.88318
2.86758
2.92831
2.92214
2.87526
2.89083
3.06323
3.80339
6.13954
12.6546
36.9581
189.981
753.833
746.558
187.24
35.0737
11.6201
5.41045
3.21027
2.4481
2.2339
2.21509
2.23083
2.22495
2.20823
2.2282
2.44384
3.19993
5.46463
11.7344
35.0178
187.241
746.529
742.615
185.841
34.0148
11.2743
5.10738
2.91576
2.15875
1.95864
1.88163
1.90982
1.87256
1.87317
1.91549
2.139
2.9189
5.15322
11.2514
33.9775
185.751
742.581
740.47
185.016
33.4152
11.0224
5.02366
2.80932
2.03277
1.79587
1.76253
1.73884
1.71941
1.72789
1.79357
2.01489
2.77788
4.99572
11.1506
33.3544
184.928
740.436
739.277
184.456
33.0562
11.0038
4.94238
2.74657
1.97219
1.74218
1.68721
1.66083
1.66073
1.6919
1.76416
1.96886
2.74853
4.94214
10.9737
33.1522
184.405
739.252
738.605
184.051
32.8502
10.9348
4.96106
2.71315
1.9505
1.72714
1.63081
1.64341
1.647
1.67384
1.74882
1.95464
2.73094
4.95851
10.9504
32.8727
183.984
738.571
738.198
183.79
32.729
10.9039
4.95941
2.72192
1.94638
1.69969
1.63118
1.62279
1.6316
1.67404
1.73231
1.95214
2.71798
4.93487
10.9503
32.7496
183.733
738.176
737.916
183.67
32.7395
10.8703
4.92762
2.74318
1.96509
1.6873
1.64227
1.63351
1.63812
1.68383
1.72926
1.94647
2.70166
4.94763
10.925
32.696
183.607
737.91
737.684
183.548
32.7265
10.8777
4.93495
2.74926
1.97623
1.69929
1.66064
1.64597
1.65869
1.68418
1.71703
1.95155
2.70959
4.94748
10.8584
32.7085
183.468
737.69
737.5
183.406
32.6094
10.9291
4.97303
2.73208
1.95503
1.70315
1.65847
1.64158
1.65601
1.67688
1.71409
1.93193
2.71166
4.94681
10.9073
32.6082
183.345
737.52
737.358
183.3
32.5273
10.9789
4.96619
2.71072
1.94582
1.69905
1.63182
1.63229
1.64637
1.66612
1.70748
1.91833
2.71223
4.95574
10.9305
32.5302
183.287
737.391
737.25
183.155
32.4709
10.9715
4.96106
2.71694
1.93547
1.69957
1.63589
1.61831
1.62751
1.64215
1.70142
1.91379
2.7217
4.96765
10.8742
32.5439
183.245
737.273
737.182
183.012
32.4148
10.9337
4.98471
2.72258
1.93502
1.72368
1.63183
1.61256
1.62404
1.6312
1.6965
1.90918
2.72009
4.96679
10.8233
32.5446
183.154
737.158
737.12
182.905
32.3946
10.9331
4.95359
2.69971
1.9464
1.73115
1.62333
1.61438
1.6338
1.62822
1.68643
1.91701
2.72065
4.96192
10.7994
32.5162
182.926
737.062
737.06
182.744
32.3681
10.9301
4.92451
2.70915
1.94978
1.70642
1.61561
1.62372
1.61969
1.62933
1.69197
1.90439
2.69814
4.92193
10.862
32.4039
182.696
737.003
737.017
182.666
32.3922
10.8743
4.94004
2.7112
1.94265
1.68438
1.62198
1.61214
1.60817
1.62661
1.6811
1.90443
2.68432
4.90961
10.861
32.3769
182.555
736.966
736.993
182.671
32.3979
10.8877
4.91968
2.70668
1.93153
1.6801
1.61952
1.59575
1.61793
1.62474
1.68264
1.88962
2.67006
4.92058
10.8366
32.3356
182.448
736.943
736.98
182.661
32.3472
10.9247
4.9384
2.69435
1.92323
1.69404
1.63187
1.61335
1.61597
1.62287
1.69139
1.88685
2.65799
4.94074
10.8519
32.2857
182.417
736.947
736.97
182.621
32.3692
10.8931
4.91213
2.71446
1.94685
1.70998
1.6416
1.62643
1.61246
1.62982
1.69113
1.90432
2.69525
4.92579
10.8168
32.2988
182.442
737.001
736.951
182.516
32.3125
10.8702
4.94738
2.71753
1.93725
1.69834
1.64653
1.6265
1.61584
1.62641
1.68254
1.90419
2.68425
4.9284
10.8352
32.3502
182.587
737.055
736.92
182.442
32.2894
10.8605
4.9502
2.71157
1.93272
1.7044
1.65139
1.64679
1.62534
1.62999
1.67015
1.88549
2.6796
4.96769
10.8504
32.3608
182.766
737.059
736.897
182.411
32.3443
10.8124
4.91163
2.71752
1.93563
1.7078
1.67181
1.65264
1.62722
1.63637
1.67338
1.90272
2.69245
4.95562
10.852
32.4067
182.828
737.043
736.898
182.371
32.2982
10.8689
4.91859
2.68463
1.93291
1.72473
1.66544
1.659
1.62599
1.65554
1.68794
1.90532
2.69782
4.95978
10.8542
32.457
182.849
736.981
736.905
182.363
32.2938
10.8507
4.92336
2.68548
1.92443
1.71668
1.6632
1.63955
1.63395
1.63302
1.68158
1.899
2.69419
4.96991
10.9142
32.4079
182.828
736.902
736.936
182.38
32.3488
10.7909
4.885
2.70159
1.92828
1.69818
1.65392
1.61495
1.63155
1.61227
1.6755
1.89648
2.68411
4.96223
10.9448
32.3839
182.776
736.85
737.013
182.446
32.3645
10.8046
4.89447
2.70465
1.92584
1.68226
1.63344
1.61606
1.62177
1.61459
1.67775
1.91223
2.71751
4.9812
10.8905
32.3809
182.735
736.811
737.041
182.657
32.3921
10.8277
4.94535
2.68705
1.91099
1.68905
1.6131
1.60331
1.58605
1.60095
1.68324
1.924
2.71621
4.98066
10.8666
32.394
182.711
736.779
737.037
182.881
32.3902
10.9218
4.96095
2.68132
1.9064
1.68061
1.60413
1.58802
1.57436
1.59293
1.67649
1.92683
2.71464
4.93631
10.8906
32.3823
182.629
736.759
737.015
183.002
32.429
10.9587
4.95781
2.69907
1.91189
1.68355
1.60417
1.58503
1.5819
1.60743
1.68188
1.93931
2.71111
4.92224
10.8543
32.3807
182.494
736.718
736.947
183.016
32.4646
10.9404
4.97908
2.70527
1.92124
1.6737
1.61117
1.5973
1.59559
1.60937
1.70301
1.94423
2.6908
4.89218
10.834
32.3905
182.42
736.667
736.842
182.988
32.477
10.9135
4.96022
2.70683
1.91464
1.67722
1.61009
1.59469
1.60925
1.62662
1.71068
1.9234
2.6484
4.8584
10.8581
32.367
182.382
736.645
736.754
182.844
32.4416
10.9259
4.93841
2.69823
1.90981
1.68597
1.61616
1.59645
1.61577
1.638
1.71645
1.91625
2.65091
4.84905
10.8687
32.328
182.346
736.645
736.693
182.679
32.3707
10.9299
4.96609
2.68246
1.90366
1.68399
1.62635
1.61102
1.62593
1.64686
1.71598
1.92396
2.65715
4.82767
10.8806
32.3331
182.348
736.659
736.656
182.678
32.3722
10.923
4.97601
2.69105
1.91012
1.69264
1.63625
1.62095
1.62894
1.63942
1.70356
1.92973
2.67054
4.85291
10.8338
32.323
182.362
736.702
736.63
182.714
32.346
10.9452
4.98044
2.72685
1.93067
1.68948
1.63559
1.61877
1.63186
1.63831
1.68818
1.9124
2.66807
4.90169
10.8363
32.2657
182.346
736.722
736.606
182.727
32.339
10.9457
5.01139
2.73756
1.95346
1.69443
1.62323
1.60854
1.60258
1.64782
1.70067
1.91875
2.67968
4.86852
10.8524
32.2715
182.327
736.744
736.587
182.704
32.3256
10.9699
5.00742
2.72701
1.94041
1.69526
1.61745
1.61229
1.62606
1.6242
1.68485
1.92233
2.66747
4.89331
10.8416
32.2594
182.337
736.808
736.573
182.614
32.3213
10.9338
4.99272
2.74557
1.94873
1.70388
1.61606
1.61397
1.62924
1.60729
1.67907
1.89266
2.66367
4.93048
10.8354
32.276
182.391
736.927
736.543
182.526
32.3053
10.9
5.00268
2.73481
1.94213
1.70243
1.623
1.61716
1.61062
1.60943
1.66855
1.88951
2.68498
4.89484
10.8352
32.3857
182.614
736.989
736.457
182.355
32.2665
10.8933
5.00245
2.72442
1.9427
1.71122
1.62673
1.61284
1.58981
1.61105
1.65717
1.88935
2.69141
4.92772
10.867
32.416
182.875
736.993
736.387
182.179
32.2254
10.8878
5.00378
2.7251
1.94185
1.73034
1.64689
1.60156
1.59638
1.60588
1.65414
1.88972
2.69449
4.94058
10.8428
32.4869
182.97
736.975
736.382
182.095
32.2198
10.8469
4.97611
2.72345
1.95881
1.73973
1.6458
1.59127
1.60122
1.60261
1.65277
1.88125
2.67645
4.9572
10.8968
32.443
182.955
736.912
736.404
182.075
32.2141
10.8465
4.93947
2.71257
1.95592
1.71816
1.63593
1.60539
1.58745
1.61002
1.66344
1.88176
2.68605
4.95251
10.8975
32.4635
182.909
736.832
736.488
182.087
32.2329
10.7838
4.95551
2.72015
1.95521
1.71498
1.6406
1.60678
1.59501
1.62027
1.67485
1.90941
2.70094
4.90431
10.8991
32.5231
182.886
736.742
736.601
182.134
32.2326
10.8303
4.92982
2.69219
1.93762
1.71086
1.62995
1.60786
1.62746
1.63022
1.69809
1.92617
2.72042
4.90493
10.863
32.5672
182.876
736.656
736.713
182.211
32.2355
10.8419
4.91587
2.68692
1.91002
1.70063
1.63372
1.62731
1.62167
1.64803
1.70694
1.9188
2.70409
4.91701
10.9389
32.4948
182.813
736.591
736.856
182.285
32.2415
10.8574
4.92418
2.68066
1.9019
1.69004
1.63425
1.62622
1.61908
1.66461
1.69286
1.91056
2.68771
4.94457
10.9274
32.4174
182.586
736.515
736.984
182.397
32.3006
10.8288
4.9409
2.69052
1.9085
1.70282
1.64586
1.62726
1.62022
1.66454
1.68742
1.92558
2.69119
4.91436