/*--------------------------------*- C++ -*----------------------------------*\
| =========                 |                                                 |
| \\      /  F ield         | OpenFOAM: The Open Source CFD Toolbox           |
|  \\    /   O peration     | Version:  2.1.0                                 |
|   \\  /    A nd           | Web:      www.OpenFOAM.org                      |
|    \\/     M anipulation  |                                                 |
\*---------------------------------------------------------------------------*/
FoamFile
{
    version     2.0;
    format      ascii;
    class       volScalarField;
    location    "0.03";
    object      p;
}
// * * * * * * * * * * * * * * * * * * * * * * * * * * * * * * * * * * * * * //

dimensions      [1 -1 -2 0 0 0 0];

internalField   nonuniform List<scalar> 
6400
(
99990
99994.6
99998.1
100001
100004
100007
100011
100014
100017
100019
100022
100025
100029
100031
100034
100036
100038
100039
100041
100047
100052
100057
100060
100062
100065
100067
100069
100070
100073
100079
100084
100088
100090
100093
100097
100102
100107
100109
100111
100113
100116
100118
100121
100125
100130
100134
100138
100141
100143
100146
100148
100151
100155
100157
100160
100162
100164
100167
100169
100171
100172
100173
100174
100174
100173
100172
100170
100167
100162
100156
100148
100138
100126
100111
100094
100074
100051
100025
99996.2
99964.8
99930.9
99894.5
99855.7
99814.7
99771.4
99725.9
99678.1
99627.7
99574.3
99517.3
99456.4
99391.7
99325.7
99263.5
99208
99154.9
99099
98989.7
98641.5
97126.9
99990.2
99994.9
99998.3
100000
100004
100008
100011
100014
100017
100019
100022
100025
100029
100031
100034
100036
100038
100039
100041
100046
100053
100057
100060
100062
100065
100067
100069
100070
100073
100078
100085
100088
100090
100093
100097
100102
100107
100110
100111
100113
100116
100119
100121
100125
100130
100134
100138
100141
100143
100146
100148
100151
100155
100157
100159
100162
100164
100166
100169
100170
100172
100173
100173
100173
100173
100171
100169
100166
100162
100156
100148
100138
100125
100110
100093
100073
100050
100024
99995.2
99963.8
99929.8
99893.4
99854.6
99813.5
99770.2
99724.7
99676.9
99626.5
99573.2
99516.5
99456
99391.9
99326.5
99264.1
99209.9
99165.5
99113
99017.9
98736.8
98225.2
99991.1
99995.3
99998.8
100000
100003
100008
100011
100014
100017
100018
100022
100025
100029
100032
100034
100036
100038
100039
100039
100046
100054
100057
100060
100063
100065
100067
100069
100069
100071
100078
100086
100089
100090
100092
100097
100103
100108
100110
100111
100113
100116
100119
100120
100125
100130
100134
100139
100141
100144
100146
100148
100151
100155
100157
100159
100162
100164
100166
100169
100171
100172
100173
100174
100174
100173
100172
100170
100167
100162
100156
100148
100138
100126
100111
100093
100073
100050
100024
99995.1
99963.7
99929.6
99893.1
99854.3
99813.3
99770
99724.6
99676.9
99626.7
99573.9
99517.9
99458.6
99396.8
99334.8
99276.7
99227.1
99186
99146.8
99088.4
98945.5
99048.9
99995.6
99995.9
99999.6
99998.9
100003
100008
100010
100015
100018
100018
100021
100025
100029
100032
100035
100037
100038
100038
100036
100045
100056
100058
100060
100063
100065
100068
100069
100068
100069
100078
100088
100090
100089
100091
100096
100103
100109
100111
100110
100112
100115
100119
100118
100124
100131
100133
100140
100141
100144
100146
100148
100151
100155
100158
100159
100163
100164
100167
100170
100171
100173
100174
100174
100175
100174
100173
100171
100168
100163
100157
100149
100139
100126
100111
100094
100073
100050
100024
99995.6
99964.2
99930.2
99893.7
99854.9
99813.8
99770.5
99725
99677.2
99627.2
99574.5
99519.2
99461.5
99402.6
99345.5
99294.2
99253.1
99225.6
99213.3
99217.3
99248.4
99664.6
100001
99996.1
99999.5
99998
100003
100009
100010
100015
100018
100018
100021
100025
100030
100032
100034
100037
100038
100039
100032
100043
100060
100060
100060
100062
100066
100068
100069
100065
100067
100079
100091
100091
100087
100090
100096
100104
100111
100112
100110
100111
100116
100120
100116
100124
100133
100133
100140
100142
100144
100146
100148
100152
100155
100158
100160
100163
100164
100167
100170
100173
100174
100174
100175
100175
100175
100174
100172
100168
100164
100158
100150
100140
100127
100112
100094
100074
100051
100025
99996.5
99965.1
99931.1
99894.6
99855.7
99814.6
99771.1
99725.4
99677.6
99627.4
99575
99520.5
99464.6
99409.3
99358.4
99315.9
99287.2
99280.6
99307.4
99392.8
99585.6
100145
99999.5
99994.8
99997.6
99997.5
100002
100009
100013
100014
100016
100020
100022
100025
100029
100033
100033
100037
100039
100038
100031
100042
100061
100061
100059
100062
100067
100069
100069
100062
100065
100082
100092
100092
100084
100090
100097
100103
100113
100112
100108
100110
100116
100121
100115
100123
100135
100130
100138
100146
100145
100145
100147
100152
100156
100158
100161
100164
100165
100166
100170
100174
100174
100175
100176
100176
100175
100174
100172
100169
100164
100158
100150
100140
100128
100113
100095
100075
100052
100026
99997.4
99966.1
99932.1
99895.5
99856.6
99815.2
99771.6
99725.7
99677.6
99627.4
99575.2
99521.5
99467.7
99416.2
99371.7
99338.8
99324.6
99343.2
99416
99587.4
99906.8
100518
99987.3
99993.7
99995.6
99994.3
100000
100013
100015
100012
100015
100022
100023
100025
100029
100031
100032
100037
100040
100035
100034
100044
100057
100062
100060
100063
100068
100068
100068
100061
100066
100083
100090
100092
100082
100091
100101
100102
100112
100111
100108
100108
100114
100122
100119
100125
100135
100126
100138
100149
100145
100147
100145
100152
100157
100157
100161
100164
100166
100165
100170
100176
100175
100175
100176
100176
100176
100175
100173
100170
100165
100159
100151
100141
100129
100114
100096
100076
100053
100027
99998.2
99966.8
99932.8
99896.2
99857.2
99815.7
99771.9
99725.7
99677.4
99627
99575.1
99522.3
99470.3
99422.3
99383.6
99359.8
99360.3
99404.8
99523.5
99772.5
100180
100796
99969.7
99993.2
99994.6
99989.8
100000
100017
100014
100012
100017
100022
100024
100026
100029
100031
100031
100037
100038
100032
100039
100046
100053
100062
100062
100065
100068
100066
100067
100060
100069
100082
100084
100094
100086
100092
100102
100102
100108
100111
100110
100104
100111
100125
100125
100127
100131
100127
100138
100146
100146
100148
100142
100152
100159
100156
100161
100165
100166
100165
100171
100176
100175
100176
100177
100177
100176
100175
100173
100170
100165
100159
100152
100141
100129
100114
100097
100076
100053
100027
99998.7
99967.4
99933.4
99896.8
99857.6
99816
99772
99725.6
99677.1
99626.6
99574.7
99522.5
99472.1
99426.9
99392.6
99376.3
99389.8
99456.9
99615.2
99925.9
100389
100992
99971.2
99992
99995.2
99991
100000
100017
100012
100012
100018
100022
100023
100025
100028
100031
100033
100037
100034
100033
100044
100044
100050
100063
100064
100066
100068
100065
100067
100062
100072
100078
100083
100093
100088
100095
100101
100101
100106
100111
100111
100100
100106
100129
100131
100129
100126
100129
100140
100144
100147
100148
100144
100150
100156
100156
100162
100165
100166
100166
100172
100176
100174
100176
100177
100177
100176
100175
100173
100170
100166
100160
100152
100142
100129
100114
100097
100077
100053
100028
99999.1
99967.8
99933.8
99897.2
99857.9
99816.2
99772
99725.4
99676.6
99625.9
99574
99522.1
99472.7
99429.3
99397.8
99386.7
99409.7
99493.3
99680
100033
100527
101115
99977.4
99992.1
99995.7
99996.1
100002
100013
100010
100012
100020
100023
100024
100023
100028
100032
100034
100037
100030
100035
100048
100043
100046
100062
100067
100065
100067
100066
100067
100063
100073
100080
100081
100086
100090
100101
100102
100099
100103
100111
100112
100100
100103
100129
100136
100129
100122
100128
100140
100144
100147
100148
100145
100152
100155
100155
100163
100165
100166
100167
100173
100175
100175
100176
100177
100177
100176
100175
100173
100170
100166
100160
100152
100142
100130
100115
100097
100077
100054
100028
99999.5
99968.2
99934.2
99897.5
99858.2
99816.4
99772
99725.2
99676
99625
99572.8
99520.9
99471.6
99429
99398.7
99389.8
99417.7
99509.6
99710.8
100084
100593
101175
99985.4
99993.1
99997.2
100001
100004
100010
100006
100012
100023
100023
100024
100023
100027
100032
100033
100037
100032
100035
100047
100044
100045
100062
100067
100064
100066
100068
100068
100063
100073
100083
100081
100081
100091
100105
100101
100096
100101
100112
100113
100103
100104
100126
100136
100130
100122
100129
100138
100143
100149
100147
100145
100152
100156
100153
100162
100165
100166
100169
100172
100175
100175
100176
100177
100177
100177
100175
100173
100170
100166
100160
100152
100142
100130
100115
100097
100077
100054
100028
99999.9
99968.6
99934.6
99898
99858.6
99816.7
99772.1
99725
99675.5
99624
99571.3
99518.7
99468.9
99425.9
99395
99385.2
99412.5
99504
99704.1
100076
100583
101165
99995.6
99995.4
100000
100006
100007
100010
100003
100012
100025
100024
100023
100023
100027
100030
100035
100037
100035
100038
100045
100041
100046
100063
100067
100065
100066
100068
100069
100066
100073
100080
100084
100082
100088
100104
100102
100093
100099
100114
100114
100107
100107
100123
100133
100129
100126
100130
100132
100143
100151
100146
100147
100151
100156
100153
100161
100165
100165
100170
100172
100175
100175
100176
100177
100177
100176
100175
100173
100170
100166
100160
100152
100142
100130
100115
100097
100077
100054
100029
100000
99969.2
99935.2
99898.5
99859.1
99817
99772.3
99724.9
99675
99622.9
99569.3
99515.7
99464.5
99419.8
99386.8
99373.1
99394.5
99476.8
99660.5
100009
100500
101089
100003
99997.4
100004
100012
100009
100008
100005
100012
100024
100025
100023
100025
100027
100026
100034
100038
100036
100040
100044
100037
100045
100065
100066
100066
100067
100069
100069
100069
100073
100078
100084
100083
100089
100101
100101
100090
100098
100117
100114
100109
100111
100121
100130
100130
100128
100130
100130
100143
100151
100146
100148
100149
100154
100154
100160
100166
100165
100170
100172
100175
100175
100176
100177
100177
100176
100175
100173
100170
100166
100160
100152
100142
100130
100115
100098
100077
100055
100029
100001
99969.5
99935.6
99898.9
99859.4
99817.3
99772.4
99724.7
99674.4
99621.6
99567
99511.9
99458.6
99411.1
99374.4
99354.5
99365.4
99430.4
99584.1
99888.2
100347
100950
100003
99998.5
100008
100015
100009
100008
100005
100013
100025
100023
100024
100026
100026
100024
100034
100040
100037
100040
100045
100035
100044
100068
100065
100064
100067
100070
100069
100071
100071
100077
100086
100084
100091
100100
100098
100092
100098
100114
100114
100111
100114
100119
100128
100130
100129
100130
100131
100143
100149
100146
100148
100146
100154
100156
100158
100167
100164
100169
100174
100174
100175
100175
100176
100176
100176
100175
100173
100170
100165
100159
100152
100142
100130
100115
100097
100077
100055
100029
100001
99969.7
99935.8
99899.1
99859.7
99817.5
99772.4
99724.5
99673.8
99620.3
99564.6
99507.7
99451.7
99400.4
99358.6
99330.7
99327.7
99369.7
99482.9
99723.6
100124
100740
99997.8
100002
100009
100013
100011
100009
100003
100014
100026
100022
100025
100026
100024
100025
100035
100039
100038
100039
100045
100037
100042
100067
100066
100063
100067
100070
100070
100072
100070
100076
100088
100083
100089
100099
100096
100095
100100
100110
100115
100114
100114
100119
100127
100127
100130
100132
100133
100142
100147
100147
100148
100144
100153
100160
100157
100166
100164
100168
100175
100173
100175
100175
100176
100176
100176
100174
100173
100169
100165
100159
100151
100141
100129
100114
100097
100077
100055
100029
100001
99969.7
99935.8
99899.1
99859.7
99817.5
99772.4
99724.3
99673.3
99619.2
99562.3
99503.4
99444.4
99388.4
99340.5
99303.7
99285.3
99301.9
99368.9
99530.7
99839.8
100448
99994.5
100003
100008
100010
100011
100009
100005
100014
100023
100023
100025
100025
100023
100027
100036
100038
100039
100037
100044
100042
100044
100063
100066
100063
100066
100071
100070
100072
100072
100076
100087
100086
100088
100096
100097
100098
100102
100106
100114
100116
100113
100119
100127
100127
100130
100132
100135
100142
100145
100146
100147
100146
100151
100159
100158
100164
100165
100167
100173
100172
100174
100175
100175
100175
100175
100174
100172
100169
100165
100159
100151
100141
100129
100114
100097
100077
100054
100029
100001
99969.4
99935.6
99899
99859.6
99817.4
99772.3
99724.1
99672.7
99618.1
99560.1
99499.4
99437.2
99376.4
99321.9
99276.3
99246
99236
99256.9
99332.2
99511.6
100063
99989.6
100001
100006
100009
100010
100009
100009
100015
100021
100023
100025
100025
100024
100028
100035
100037
100039
100038
100043
100044
100047
100060
100064
100064
100066
100070
100071
100072
100074
100077
100085
100087
100089
100094
100097
100099
100103
100106
100112
100116
100114
100119
100126
100127
100129
100132
100135
100141
100145
100146
100147
100149
100151
100157
100160
100162
100165
100168
100171
100172
100173
100174
100175
100175
100174
100173
100171
100168
100164
100158
100150
100140
100128
100114
100097
100077
100054
100029
100000
99969.2
99935.4
99898.9
99859.5
99817.3
99772.1
99723.9
99672.3
99617.2
99558.4
99495.9
99430.9
99365.7
99304.9
99251.6
99209.9
99180.1
99162.3
99156.4
99171.7
99570.6
99988.1
99998.7
100004
100008
100009
100010
100011
100015
100020
100023
100024
100025
100026
100029
100034
100036
100038
100039
100043
100045
100049
100058
100063
100064
100066
100069
100071
100073
100075
100078
100083
100087
100090
100094
100097
100099
100103
100106
100111
100115
100116
100120
100125
100127
100130
100133
100136
100140
100144
100145
100147
100149
100152
100157
100160
100162
100165
100167
100170
100172
100173
100173
100174
100174
100174
100173
100171
100168
100163
100157
100150
100140
100128
100113
100096
100077
100054
100029
100000
99969.4
99935.6
99899.1
99859.8
99817.6
99772.4
99724
99672.3
99616.8
99557.2
99493.4
99426.1
99357.3
99291.5
99232.7
99184.1
99141.5
99097.3
99029.5
98869.5
98942.4
99989.1
99997.6
100003
100007
100009
100010
100012
100015
100019
100022
100024
100025
100027
100029
100033
100036
100038
100040
100043
100046
100050
100057
100062
100064
100066
100069
100071
100073
100075
100078
100083
100087
100090
100094
100097
100099
100103
100107
100111
100114
100116
100120
100124
100127
100130
100133
100136
100140
100143
100145
100147
100150
100152
100156
100159
100162
100165
100167
100169
100171
100172
100173
100173
100173
100173
100172
100170
100167
100163
100157
100149
100140
100128
100113
100096
100077
100054
100029
100001
99970.1
99936.5
99900
99860.8
99818.6
99773.4
99725
99673.1
99617.2
99556.9
99492
99422.9
99351.4
99281.9
99219.2
99167.1
99122.8
99065.1
98960.4
98661.9
98098
99989.6
99997.1
100003
100007
100009
100010
100012
100015
100019
100022
100024
100025
100027
100030
100033
100036
100038
100040
100043
100046
100051
100057
100061
100064
100066
100069
100071
100073
100075
100079
100083
100087
100090
100093
100097
100100
100103
100107
100111
100114
100117
100120
100124
100127
100130
100133
100136
100140
100143
100145
100147
100150
100153
100156
100159
100162
100165
100168
100170
100172
100173
100174
100174
100174
100174
100173
100171
100168
100164
100158
100150
100141
100129
100114
100098
100078
100056
100030
100002
99971.6
99938.1
99901.7
99862.5
99820.5
99775.4
99727
99675.1
99619.2
99558.8
99493.7
99424.2
99352.6
99283.9
99221
99166.8
99113.7
99047
98930.2
98566.1
96968.1
100594
101807
102319
102610
102808
102957
103074
103169
103247
103312
103366
103412
103449
103480
103505
103525
103540
103551
103557
103559
100544
101520
102119
102496
102747
102927
103064
103172
103258
103329
103387
103435
103474
103507
103533
103553
103569
103580
103586
103586
100804
101539
102055
102431
102702
102900
103051
103169
103263
103339
103401
103451
103493
103527
103554
103575
103590
103601
103607
103608
101052
101649
102088
102430
102693
102895
103052
103175
103274
103353
103417
103470
103513
103548
103575
103597
103612
103623
103629
103629
101261
101766
102151
102461
102709
102906
103062
103187
103288
103369
103435
103489
103533
103568
103596
103618
103634
103644
103649
103649
101434
101874
102220
102504
102737
102926
103079
103203
103304
103386
103453
103508
103552
103588
103616
103637
103653
103663
103668
103668
101572
101966
102283
102548
102768
102949
103098
103220
103320
103402
103470
103525
103569
103605
103633
103655
103670
103680
103684
103683
101675
102037
102334
102585
102796
102971
103116
103236
103335
103417
103484
103539
103584
103620
103648
103669
103684
103694
103697
103696
101745
102086
102371
102614
102818
102989
103132
103250
103349
103430
103496
103551
103595
103631
103659
103681
103695
103704
103707
103705
101781
102113
102393
102631
102832
103001
103142
103259
103356
103437
103503
103557
103601
103637
103665
103686
103701
103709
103712
103709
101773
102105
102385
102623
102825
102994
103136
103253
103351
103431
103498
103553
103597
103633
103661
103682
103697
103705
103708
103706
101722
102065
102352
102595
102801
102973
103116
103236
103335
103417
103484
103540
103585
103621
103649
103671
103686
103695
103699
103698
101642
102006
102305
102558
102770
102947
103094
103216
103317
103399
103467
103523
103569
103605
103634
103656
103672
103681
103686
103685
101528
101925
102244
102512
102734
102918
103070
103194
103296
103380
103448
103504
103550
103587
103616
103638
103654
103664
103669
103669
101379
101824
102172
102460
102696
102888
103044
103171
103274
103358
103427
103483
103529
103566
103595
103617
103634
103644
103650
103649
101196
101706
102095
102410
102662
102862
103022
103150
103253
103337
103405
103461
103506
103543
103572
103594
103611
103622
103628
103628
100977
101580
102024
102372
102640
102846
103007
103134
103235
103317
103384
103439
103483
103519
103548
103570
103587
103599
103605
103605
100719
101460
101984
102367
102644
102848
103003
103124
103221
103300
103364
103417
103460
103495
103524
103546
103562
103574
103580
103581
100447
101436
102045
102429
102687
102872
103013
103125
103214
103288
103348
103398
103439
103473
103501
103522
103539
103550
103556
103557
100488
101721
102243
102542
102746
102900
103021
103119
103201
103268
103325
103372
103411
103444
103470
103491
103507
103519
103525
103526
103431
103428
103428
103427
103426
103426
103425
103425
103425
103425
103425
103425
103425
103425
103426
103426
103427
103428
103428
103431
103428
103425
103425
103425
103424
103424
103424
103424
103424
103424
103424
103424
103424
103424
103424
103424
103425
103425
103425
103428
103427
103424
103424
103424
103424
103424
103424
103424
103424
103424
103424
103424
103424
103424
103424
103424
103424
103424
103424
103427
103427
103425
103425
103425
103425
103425
103425
103425
103425
103425
103425
103425
103425
103425
103425
103425
103425
103425
103425
103427
103426
103424
103424
103424
103424
103424
103424
103424
103424
103424
103424
103424
103424
103424
103424
103424
103424
103424
103424
103426
103426
103424
103424
103424
103424
103424
103424
103424
103424
103424
103424
103424
103424
103424
103424
103423
103423
103423
103424
103425
103425
103423
103423
103423
103423
103423
103423
103423
103423
103423
103423
103423
103423
103423
103423
103423
103423
103423
103423
103425
103424
103422
103422
103422
103422
103422
103422
103423
103423
103423
103423
103423
103423
103423
103422
103422
103422
103422
103422
103424
103422
103421
103420
103420
103421
103421
103421
103421
103421
103421
103421
103421
103421
103421
103421
103420
103420
103420
103420
103422
103421
103419
103419
103419
103419
103420
103420
103420
103420
103421
103421
103420
103420
103419
103419
103419
103419
103419
103419
103421
103419
103418
103418
103418
103418
103419
103419
103420
103420
103420
103419
103419
103419
103419
103418
103418
103418
103418
103418
103419
103418
103417
103417
103417
103417
103417
103417
103417
103417
103416
103416
103416
103417
103417
103417
103417
103416
103416
103416
103418
103416
103415
103415
103415
103415
103415
103414
103412
103412
103413
103414
103415
103415
103415
103415
103415
103415
103415
103415
103416
103414
103413
103413
103413
103413
103413
103413
103413
103414
103415
103416
103416
103416
103415
103415
103414
103413
103413
103413
103414
103413
103412
103412
103412
103412
103413
103414
103415
103416
103415
103414
103413
103413
103413
103413
103413
103412
103412
103412
103413
103411
103411
103411
103411
103411
103411
103411
103410
103410
103409
103408
103407
103407
103408
103409
103410
103410
103410
103410
103411
103410
103409
103409
103409
103409
103408
103407
103405
103405
103405
103406
103406
103406
103406
103406
103406
103407
103408
103408
103409
103408
103408
103408
103408
103408
103407
103407
103407
103407
103406
103407
103407
103407
103407
103406
103406
103407
103407
103407
103408
103407
103407
103407
103406
103407
103407
103408
103408
103408
103408
103408
103408
103408
103408
103408
103408
103408
103407
103407
103407
103406
103406
103406
103406
103405
103406
103405
103405
103405
103405
103405
103405
103405
103405
103406
103406
103406
103406
103406
103407
103405
103405
103404
103404
103403
103403
103404
103405
103405
103405
103405
103405
103405
103405
103405
103406
103406
103406
103406
103406
103404
103404
103404
103404
103404
103404
103405
103406
103406
103406
103406
103406
103406
103407
103406
103406
103405
103405
103405
103405
103403
103403
103403
103404
103404
103404
103404
103404
103405
103405
103404
103405
103404
103404
103404
103403
103403
103403
103403
103403
103402
103402
103402
103403
103403
103403
103403
103403
103403
103402
103402
103402
103402
103402
103401
103401
103402
103402
103402
103402
103400
103400
103400
103400
103400
103401
103402
103402
103402
103403
103403
103402
103401
103401
103401
103401
103401
103401
103401
103401
103399
103399
103399
103399
103399
103400
103400
103402
103404
103404
103403
103401
103400
103400
103399
103399
103399
103399
103399
103399
103397
103397
103397
103398
103398
103398
103397
103397
103397
103399
103399
103399
103398
103398
103398
103398
103398
103398
103398
103398
103395
103395
103395
103395
103394
103394
103393
103392
103390
103390
103392
103394
103395
103397
103398
103398
103397
103396
103396
103396
103394
103394
103394
103393
103392
103392
103392
103391
103390
103389
103390
103391
103392
103392
103392
103392
103393
103394
103394
103394
103393
103393
103393
103393
103393
103393
103393
103393
103393
103394
103393
103393
103392
103391
103390
103391
103392
103392
103393
103393
103392
103392
103392
103392
103392
103392
103393
103393
103393
103393
103393
103393
103393
103393
103392
103392
103392
103392
103392
103392
103391
103391
103391
103391
103391
103391
103391
103392
103392
103393
103393
103393
103392
103392
103392
103391
103391
103391
103391
103391
103390
103390
103390
103390
103391
103391
103391
103390
103391
103392
103393
103392
103391
103390
103391
103390
103390
103390
103390
103390
103389
103389
103388
103388
103388
103388
103388
103388
103387
103387
103387
103387
103388
103389
103389
103389
103389
103389
103389
103389
103387
103387
103387
103387
103387
103387
103387
103387
103387
103385
103384
103385
103386
103387
103388
103388
103388
103388
103388
103388
103386
103386
103386
103386
103387
103387
103387
103386
103386
103387
103388
103388
103387
103387
103387
103387
103387
103387
103387
103387
103385
103385
103385
103385
103384
103384
103384
103384
103385
103385
103386
103386
103385
103385
103385
103385
103385
103385
103385
103385
103384
103384
103384
103384
103384
103383
103384
103384
103384
103383
103383
103382
103382
103382
103382
103383
103383
103384
103384
103384
103383
103383
103383
103383
103383
103384
103384
103385
103385
103384
103383
103382
103382
103382
103383
103383
103383
103383
103383
103383
103382
103382
103382
103382
103382
103382
103383
103383
103384
103384
103383
103383
103383
103382
103382
103381
103381
103381
103382
103382
103380
103380
103380
103381
103380
103380
103379
103379
103379
103379
103380
103380
103381
103380
103381
103381
103381
103381
103381
103381
103379
103379
103379
103379
103379
103379
103378
103377
103376
103376
103378
103379
103379
103379
103380
103380
103380
103380
103380
103380
103377
103377
103378
103378
103379
103379
103379
103378
103378
103378
103378
103379
103379
103379
103379
103379
103379
103379
103379
103379
103376
103376
103375
103375
103375
103375
103377
103378
103379
103379
103379
103379
103379
103379
103379
103379
103378
103378
103378
103378
103374
103374
103374
103374
103374
103374
103375
103377
103379
103380
103381
103381
103381
103380
103379
103378
103377
103377
103376
103376
103372
103372
103372
103373
103374
103375
103375
103377
103379
103382
103385
103387
103386
103384
103381
103378
103376
103374
103374
103373
103369
103370
103370
103370
103371
103371
103372
103373
103374
103375
103377
103378
103376
103374
103372
103370
103370
103370
103370
103370
103367
103367
103367
103367
103367
103368
103368
103368
103368
103364
103361
103357
103358
103359
103361
103363
103365
103366
103366
103366
103363
103363
103363
103363
103363
103363
103364
103363
103363
103361
103358
103356
103357
103358
103361
103362
103362
103362
103363
103363
103361
103360
103360
103360
103360
103359
103357
103356
103354
103354
103354
103356
103357
103358
103359
103358
103359
103359
103360
103360
103358
103358
103358
103357
103357
103356
103355
103354
103353
103352
103352
103353
103354
103355
103355
103356
103357
103357
103357
103357
103355
103355
103355
103355
103355
103355
103356
103356
103355
103355
103356
103357
103356
103355
103356
103357
103356
103355
103355
103355
103353
103353
103353
103353
103354
103355
103355
103354
103353
103355
103356
103359
103360
103359
103357
103354
103353
103353
103352
103352
103350
103350
103350
103350
103350
103350
103351
103352
103352
103353
103353
103354
103353
103351
103349
103348
103349
103349
103349
103349
103348
103348
103348
103348
103348
103348
103348
103350
103349
103346
103343
103341
103338
103339
103341
103344
103346
103346
103347
103347
103345
103345
103345
103345
103345
103345
103344
103343
103341
103340
103338
103337
103338
103341
103343
103344
103344
103344
103344
103345
103343
103343
103342
103341
103340
103339
103338
103337
103338
103339
103341
103342
103343
103344
103344
103344
103343
103343
103343
103343
103341
103341
103341
103341
103341
103339
103338
103339
103340
103341
103342
103342
103342
103342
103341
103341
103341
103341
103341
103341
103340
103340
103340
103341
103341
103342
103342
103342
103341
103341
103341
103341
103340
103339
103338
103338
103339
103339
103340
103340
103338
103338
103338
103339
103339
103340
103340
103341
103341
103342
103343
103342
103340
103339
103340
103340
103339
103339
103338
103338
103335
103335
103336
103336
103337
103338
103339
103341
103342
103340
103339
103338
103339
103340
103340
103338
103337
103337
103336
103336
103333
103332
103332
103332
103332
103333
103333
103334
103336
103336
103334
103335
103337
103337
103337
103336
103335
103334
103334
103333
103330
103330
103330
103329
103328
103327
103326
103325
103323
103325
103328
103330
103332
103333
103332
103331
103331
103330
103330
103330
103327
103327
103327
103327
103327
103327
103325
103323
103322
103322
103323
103324
103323
103324
103323
103324
103325
103326
103326
103326
103325
103325
103325
103325
103325
103326
103327
103328
103327
103326
103324
103323
103322
103320
103319
103321
103322
103322
103323
103323
103323
103323
103323
103323
103324
103324
103325
103326
103325
103323
103321
103320
103319
103318
103320
103320
103320
103321
103321
103321
103321
103321
103321
103321
103320
103319
103317
103317
103318
103318
103317
103317
103316
103318
103319
103319
103319
103319
103319
103319
103319
103319
103319
103318
103318
103318
103316
103314
103315
103316
103318
103318
103319
103319
103318
103318
103318
103318
103318
103318
103317
103317
103317
103317
103317
103318
103319
103319
103318
103318
103319
103319
103318
103317
103317
103316
103316
103316
103316
103316
103316
103316
103316
103317
103317
103317
103316
103317
103317
103317
103318
103318
103317
103316
103316
103315
103315
103315
103315
103315
103314
103314
103315
103315
103316
103317
103316
103314
103314
103314
103313
103312
103312
103313
103313
103313
103313
103313
103313
103313
103312
103312
103312
103312
103313
103314
103315
103315
103313
103311
103310
103308
103310
103311
103311
103311
103312
103312
103312
103312
103309
103309
103308
103308
103307
103306
103305
103307
103308
103308
103308
103310
103309
103309
103310
103311
103310
103310
103310
103310
103307
103307
103306
103306
103304
103302
103301
103301
103302
103304
103305
103307
103307
103308
103308
103308
103308
103308
103308
103308
103306
103306
103306
103306
103306
103306
103305
103304
103303
103304
103305
103305
103305
103305
103305
103305
103306
103307
103307
103307
103304
103305
103305
103305
103305
103306
103306
103307
103306
103306
103305
103305
103305
103304
103305
103306
103306
103306
103306
103306
103303
103303
103303
103303
103303
103304
103305
103305
103306
103305
103305
103305
103305
103305
103305
103304
103304
103305
103305
103305
103302
103302
103302
103302
103302
103302
103301
103301
103302
103303
103304
103304
103303
103304
103304
103304
103304
103304
103304
103304
103301
103301
103301
103301
103301
103301
103301
103301
103301
103301
103302
103303
103303
103304
103304
103305
103304
103304
103304
103304
103300
103301
103301
103301
103301
103301
103302
103302
103302
103302
103302
103303
103303
103304
103304
103303
103303
103303
103303
103303
103299
103299
103299
103299
103299
103300
103300
103300
103300
103301
103301
103301
103301
103301
103301
103301
103301
103302
103302
103302
103298
103298
103298
103298
103298
103298
103298
103299
103299
103299
103299
103300
103300
103300
103299
103300
103301
103301
103301
103301
103297
103297
103297
103297
103297
103298
103298
103298
103298
103299
103299
103299
103299
103301
103302
103302
103301
103301
103301
103301
103295
103295
103295
103295
103296
103296
103296
103297
103297
103298
103298
103299
103299
103300
103300
103301
103301
103301
103301
103301
103293
103293
103294
103294
103295
103295
103295
103296
103296
103297
103298
103299
103299
103300
103299
103300
103300
103301
103301
103301
103290
103290
103290
103291
103291
103292
103293
103294
103295