/*--------------------------------*- C++ -*----------------------------------*\
| =========                 |                                                 |
| \\      /  F ield         | OpenFOAM: The Open Source CFD Toolbox           |
|  \\    /   O peration     | Version:  2.1.0                                 |
|   \\  /    A nd           | Web:      www.OpenFOAM.org                      |
|    \\/     M anipulation  |                                                 |
\*---------------------------------------------------------------------------*/
FoamFile
{
    version     2.0;
    format      ascii;
    class       surfaceScalarField;
    location    "0.03";
    object      phi;
}
// * * * * * * * * * * * * * * * * * * * * * * * * * * * * * * * * * * * * * //

dimensions      [0 3 -1 0 0 0 0];

internalField   nonuniform List<scalar> 
12460
(
-3.47976e-05
4.23572e-08
-3.4818e-05
2.04697e-08
-3.48282e-05
1.02067e-08
-3.48355e-05
7.28831e-09
-3.48409e-05
5.43185e-09
-3.48461e-05
5.12536e-09
-3.48493e-05
3.22304e-09
-3.48519e-05
2.59704e-09
-3.48593e-05
7.4363e-09
-3.48691e-05
9.8178e-09
-3.48763e-05
7.14685e-09
-3.48805e-05
4.24229e-09
-3.48811e-05
6.0722e-10
-3.48785e-05
-2.69486e-09
-3.48739e-05
-4.58432e-09
-3.48693e-05
-4.5456e-09
-3.48654e-05
-3.95172e-09
-3.48618e-05
-3.52791e-09
-3.48633e-05
1.4668e-09
-3.48619e-05
-1.3817e-09
-3.48567e-05
-5.18993e-09
-3.48578e-05
1.07634e-09
-3.48626e-05
4.81353e-09
-3.48676e-05
4.94987e-09
-3.48707e-05
3.16405e-09
-3.48737e-05
2.93491e-09
-3.48774e-05
3.71537e-09
-3.48826e-05
5.19164e-09
-3.48904e-05
7.85024e-09
-3.48957e-05
5.22395e-09
-3.48935e-05
-2.19442e-09
-3.48868e-05
-6.61505e-09
-3.48831e-05
-3.73592e-09
-3.48806e-05
-2.53481e-09
-3.48771e-05
-3.52233e-09
-3.48731e-05
-3.91889e-09
-3.48688e-05
-4.34104e-09
-3.48631e-05
-5.68451e-09
-3.48581e-05
-4.97006e-09
-3.48584e-05
2.55419e-10
-3.48551e-05
-3.31349e-09
-3.48517e-05
-3.3719e-09
-3.48553e-05
3.63532e-09
-3.48538e-05
-1.51871e-09
-3.48489e-05
-4.95914e-09
-3.48479e-05
-9.34534e-10
-3.48482e-05
2.67853e-10
-3.48486e-05
4.48867e-10
-3.48483e-05
-3.34526e-10
-3.48471e-05
-1.26265e-09
-3.48433e-05
-3.74343e-09
-3.48346e-05
-8.67321e-09
-3.48193e-05
-1.53238e-08
-3.4795e-05
-2.43025e-08
-3.47614e-05
-3.35719e-08
-3.47143e-05
-4.71187e-08
-3.4651e-05
-6.33615e-08
-3.45688e-05
-8.2189e-08
-3.44619e-05
-1.06845e-07
-3.43295e-05
-1.32397e-07
-3.41678e-05
-1.61737e-07
-3.39721e-05
-1.95656e-07
-3.37371e-05
-2.35071e-07
-3.34565e-05
-2.80598e-07
-3.31241e-05
-3.32315e-07
-3.27341e-05
-3.90065e-07
-3.22807e-05
-4.53398e-07
-3.17595e-05
-5.21196e-07
-3.11675e-05
-5.91965e-07
-3.05032e-05
-6.64356e-07
-2.9766e-05
-7.37178e-07
-2.89569e-05
-8.0914e-07
-2.8078e-05
-8.78894e-07
-2.71327e-05
-9.45228e-07
-2.61256e-05
-1.00714e-06
-2.50619e-05
-1.06374e-06
-2.39474e-05
-1.11451e-06
-2.2788e-05
-1.15933e-06
-2.15897e-05
-1.19832e-06
-2.03579e-05
-1.23178e-06
-1.90977e-05
-1.26028e-06
-1.78129e-05
-1.28476e-06
-1.65062e-05
-1.30668e-06
-1.51785e-05
-1.32774e-06
-1.3829e-05
-1.34948e-06
-1.24556e-05
-1.37339e-06
-1.10545e-05
-1.40106e-06
-9.62099e-06
-1.43356e-06
-8.15087e-06
-1.47011e-06
-6.64474e-06
-1.50613e-06
-5.11624e-06
-1.5285e-06
-3.6112e-06
-1.50504e-06
-2.2413e-06
-1.3699e-06
-1.20826e-06
-1.03304e-06
-6.83166e-07
-5.25089e-07
-7.51772e-07
6.86063e-08
-1.54119e-06
7.89422e-07
-3.70768e-06
2.16648e-06
-8.94936e-06
5.24168e-06
1.45309e-05
-2.34803e-05
-3.88374e-05
8.76116e-08
-3.88557e-05
3.87326e-08
-3.88642e-05
1.87809e-08
-3.88721e-05
1.51904e-08
-3.88769e-05
1.02269e-08
-3.88828e-05
1.09693e-08
-3.88869e-05
7.29353e-09
-3.88886e-05
4.32819e-09
-3.88957e-05
1.45656e-08
-3.89065e-05
2.06161e-08
-3.89136e-05
1.42591e-08
-3.89178e-05
8.39502e-09
-3.89181e-05
9.12147e-10
-3.89149e-05
-5.87715e-09
-3.89093e-05
-1.01392e-08
-3.89041e-05
-9.82485e-09
-3.89008e-05
-7.17973e-09
-3.88962e-05
-8.12112e-09
-3.88993e-05
4.51154e-09
-3.88993e-05
-1.38622e-09
-3.88924e-05
-1.20397e-08
-3.88943e-05
2.97381e-09
-3.89001e-05
1.05886e-08
-3.89058e-05
1.05903e-08
-3.8909e-05
6.36899e-09
-3.89112e-05
5.18913e-09
-3.89146e-05
7.07668e-09
-3.89196e-05
1.02246e-08
-3.89277e-05
1.59142e-08
-3.89329e-05
1.04598e-08
-3.89297e-05
-5.43845e-09
-3.89207e-05
-1.55497e-08
-3.89166e-05
-7.81666e-09
-3.89141e-05
-5.10511e-09
-3.89102e-05
-7.40521e-09
-3.8906e-05
-8.14809e-09
-3.89019e-05
-8.45219e-09
-3.88966e-05
-1.09139e-08
-3.88904e-05
-1.11672e-08
-3.8893e-05
2.78614e-09
-3.88911e-05
-5.16151e-09
-3.88861e-05
-8.39154e-09
-3.8893e-05
1.05174e-08
-3.88926e-05
-1.89953e-09
-3.88873e-05
-1.02544e-08
-3.88882e-05
-7.26935e-11
-3.88894e-05
1.48825e-09
-3.88904e-05
1.42432e-09
-3.88893e-05
-1.40076e-09
-3.88863e-05
-4.25368e-09
-3.88796e-05
-1.04314e-08
-3.8865e-05
-2.32751e-08
-3.88413e-05
-3.89846e-08
-3.88051e-05
-6.05134e-08
-3.87569e-05
-8.17798e-08
-3.86909e-05
-1.13105e-07
-3.86045e-05
-1.49762e-07
-3.84963e-05
-1.90414e-07
-3.8359e-05
-2.44138e-07
-3.81938e-05
-2.97572e-07
-3.79968e-05
-3.58789e-07
-3.77642e-05
-4.28246e-07
-3.74922e-05
-5.07095e-07
-3.71768e-05
-5.95984e-07
-3.68145e-05
-6.9463e-07
-3.64024e-05
-8.0211e-07
-3.59386e-05
-9.17282e-07
-3.54211e-05
-1.03865e-06
-3.48491e-05
-1.16398e-06
-3.42228e-05
-1.29063e-06
-3.3544e-05
-1.41598e-06
-3.28157e-05
-1.53747e-06
-3.20419e-05
-1.65265e-06
-3.12277e-05
-1.75945e-06
-3.03784e-05
-1.85641e-06
-2.94997e-05
-1.94242e-06
-2.85972e-05
-2.01707e-06
-2.76761e-05
-2.08044e-06
-2.67414e-05
-2.13295e-06
-2.57978e-05
-2.17537e-06
-2.48492e-05
-2.20895e-06
-2.38985e-05
-2.23546e-06
-2.29479e-05
-2.25725e-06
-2.19986e-05
-2.27706e-06
-2.10504e-05
-2.29765e-06
-2.0102e-05
-2.32176e-06
-1.91512e-05
-2.35187e-06
-1.81957e-05
-2.38911e-06
-1.72347e-05
-2.43107e-06
-1.6272e-05
-2.46887e-06
-1.53189e-05
-2.48157e-06
-1.43998e-05
-2.42413e-06
-1.35555e-05
-2.2142e-06
-1.28512e-05
-1.73732e-06
-1.24643e-05
-9.11982e-07
-1.2687e-05
2.91283e-07
-1.38383e-05
1.94071e-06
-1.63019e-05
4.63011e-06
-2.10211e-05
9.96088e-06
2.48533e-05
-3.13435e-05
-3.92017e-05
1.17732e-07
-3.9214e-05
5.09811e-08
-3.92186e-05
2.34179e-08
-3.92257e-05
2.22409e-08
-3.92304e-05
1.49081e-08
-3.92353e-05
1.58789e-08
-3.92409e-05
1.288e-08
-3.92423e-05
5.7225e-09
-3.9248e-05
2.02976e-08
-3.92608e-05
3.34137e-08
-3.92674e-05
2.08743e-08
-3.92709e-05
1.18961e-08
-3.92706e-05
6.39706e-10
-3.92675e-05
-9.03011e-09
-3.92604e-05
-1.71685e-08
-3.92544e-05
-1.5878e-08
-3.92522e-05
-9.3974e-09
-3.92449e-05
-1.53822e-08
-3.92498e-05
9.37702e-09
-3.92513e-05
1.76975e-10
-3.9242e-05
-2.13506e-08
-3.92449e-05
5.86676e-09
-3.92517e-05
1.73833e-08
-3.92582e-05
1.70568e-08
-3.92619e-05
1.00739e-08
-3.92636e-05
6.89802e-09
-3.92656e-05
9.04844e-09
-3.92701e-05
1.47032e-08
-3.92791e-05
2.49481e-08
-3.92838e-05
1.51433e-08
-3.92783e-05
-1.08588e-08
-3.92676e-05
-2.63115e-08
-3.92633e-05
-1.2107e-08
-3.92609e-05
-7.47194e-09
-3.92574e-05
-1.09342e-08
-3.92534e-05
-1.21222e-08
-3.92495e-05
-1.23402e-08
-3.92436e-05
-1.68313e-08
-3.92376e-05
-1.71979e-08
-3.92418e-05
6.96772e-09
-3.92403e-05
-6.62518e-09
-3.92318e-05
-1.69289e-08
-3.92408e-05
1.9583e-08
-3.92421e-05
-6.68965e-10
-3.92341e-05
-1.81747e-08
-3.92359e-05
1.70081e-09
-3.92379e-05
3.46239e-09
-3.92408e-05
4.30157e-09
-3.92412e-05
-9.46885e-10
-3.92409e-05
-4.54163e-09
-3.92384e-05
-1.29717e-08
-3.92292e-05
-3.24977e-08
-3.92135e-05
-5.46116e-08
-3.91896e-05
-8.44334e-08
-3.9158e-05
-1.13371e-07
-3.91127e-05
-1.58472e-07
-3.90558e-05
-2.06667e-07
-3.89853e-05
-2.60829e-07
-3.88942e-05
-3.35311e-07
-3.87854e-05
-4.06302e-07
-3.86565e-05
-4.87725e-07
-3.85049e-05
-5.79835e-07
-3.83273e-05
-6.84764e-07
-3.81207e-05
-8.02511e-07
-3.78827e-05
-9.32623e-07
-3.76112e-05
-1.07362e-06
-3.73049e-05
-1.22359e-06
-3.69633e-05
-1.38032e-06
-3.65864e-05
-1.54083e-06
-3.61754e-05
-1.7016e-06
-3.57325e-05
-1.85891e-06
-3.52607e-05
-2.00923e-06
-3.47643e-05
-2.14909e-06
-3.42479e-05
-2.27587e-06
-3.37163e-05
-2.38799e-06
-3.31744e-05
-2.48434e-06
-3.26267e-05
-2.56476e-06
-3.20775e-05
-2.62967e-06
-3.15309e-05
-2.67948e-06
-3.09913e-05
-2.715e-06
-3.04625e-05
-2.73778e-06
-2.99478e-05
-2.75014e-06
-2.945e-05
-2.75502e-06
-2.89714e-05
-2.75567e-06
-2.85137e-05
-2.75533e-06
-2.80784e-05
-2.75708e-06
-2.76671e-05
-2.76322e-06
-2.72819e-05
-2.77422e-06
-2.69265e-05
-2.78648e-06
-2.66071e-05
-2.78829e-06
-2.63345e-05
-2.75418e-06
-2.61235e-05
-2.63515e-06
-2.59881e-05
-2.34961e-06
-2.59444e-05
-1.78099e-06
-2.60334e-05
-8.22986e-07
-2.63461e-05
6.04002e-07
-2.71459e-05
2.74055e-06
-2.88217e-05
6.30586e-06
-3.20418e-05
1.31809e-05
2.90772e-05
-3.62657e-05
-3.93537e-05
1.15459e-07
-3.93571e-05
5.43742e-08
-3.93622e-05
2.85311e-08
-3.93648e-05
2.47842e-08
-3.93639e-05
1.40611e-08
-3.93728e-05
2.47874e-08
-3.93761e-05
1.617e-08
-3.93803e-05
9.90849e-09
-3.9393e-05
3.30163e-08
-3.93953e-05
3.57306e-08
-3.93944e-05
1.9943e-08
-3.94045e-05
2.1988e-08
-3.94099e-05
6.06942e-09
-3.94013e-05
-1.76697e-08
-3.93931e-05
-2.53663e-08
-3.93942e-05
-1.47267e-08
-3.93898e-05
-1.38757e-08
-3.93786e-05
-2.65494e-08
-3.93774e-05
8.16611e-09
-3.93764e-05
-8.45387e-10
-3.93737e-05
-2.40001e-08
-3.93722e-05
4.34128e-09
-3.9381e-05
2.62452e-08
-3.93917e-05
2.77134e-08
-3.9394e-05
1.23842e-08
-3.93956e-05
8.46099e-09
-3.93971e-05
1.0534e-08
-3.9406e-05
2.36563e-08
-3.94117e-05
3.06156e-08
-3.94092e-05
1.2686e-08
-3.9407e-05
-1.30774e-08
-3.94019e-05
-3.13665e-08
-3.94032e-05
-1.08398e-08
-3.93972e-05
-1.3444e-08
-3.93863e-05
-2.18741e-08
-3.93892e-05
-9.2477e-09
-3.93868e-05
-1.47304e-08
-3.93777e-05
-2.58729e-08
-3.93799e-05
-1.50437e-08
-3.93825e-05
9.56748e-09
-3.93779e-05
-1.12602e-08
-3.93691e-05
-2.56563e-08
-3.93709e-05
2.13918e-08
-3.93706e-05
-9.77599e-10
-3.93623e-05
-2.64792e-08
-3.93623e-05
1.63498e-09
-3.93656e-05
6.79223e-09
-3.93657e-05
4.4517e-09
-3.93659e-05
-7.97018e-10
-3.93698e-05
-5.91519e-10
-3.93665e-05
-1.63035e-08
-3.93622e-05
-3.68539e-08
-3.93558e-05
-6.1013e-08
-3.93495e-05
-9.06558e-08
-3.93313e-05
-1.3162e-07
-3.93062e-05
-1.83524e-07
-3.92902e-05
-2.2275e-07
-3.92668e-05
-2.84178e-07
-3.92344e-05
-3.67679e-07
-3.91884e-05
-4.52367e-07
-3.91308e-05
-5.45276e-07
-3.90635e-05
-6.47191e-07
-3.8984e-05
-7.64269e-07
-3.8891e-05
-8.95499e-07
-3.87832e-05
-1.04039e-06
-3.86595e-05
-1.19735e-06
-3.85192e-05
-1.36381e-06
-3.83628e-05
-1.5368e-06
-3.81908e-05
-1.71281e-06
-3.80046e-05
-1.88775e-06
-3.78064e-05
-2.05717e-06
-3.75988e-05
-2.21681e-06
-3.73855e-05
-2.36239e-06
-3.71704e-05
-2.49097e-06
-3.69571e-05
-2.60125e-06
-3.67494e-05
-2.69204e-06
-3.65512e-05
-2.763e-06
-3.63662e-05
-2.81464e-06
-3.61977e-05
-2.84802e-06
-3.60479e-05
-2.86476e-06
-3.59186e-05
-2.86707e-06
-3.58111e-05
-2.8577e-06
-3.57264e-05
-2.83973e-06
-3.56656e-05
-2.81647e-06
-3.56295e-05
-2.79137e-06
-3.56189e-05
-2.7677e-06
-3.56342e-05
-2.74793e-06
-3.56761e-05
-2.73235e-06
-3.57458e-05
-2.71675e-06
-3.58453e-05
-2.68874e-06
-3.59774e-05
-2.62211e-06
-3.61426e-05
-2.46997e-06
-3.63333e-05
-2.1589e-06
-3.65344e-05
-1.57986e-06
-3.6734e-05
-6.23397e-07
-3.69715e-05
8.41461e-07
-3.74038e-05
3.17283e-06
-3.82386e-05
7.14072e-06
-3.96504e-05
1.45927e-05
2.8977e-05
-3.95502e-05
-3.94026e-05
1.07101e-07
-3.9395e-05
4.67412e-08
-3.94002e-05
3.37387e-08
-3.93956e-05
2.02515e-08
-3.94012e-05
1.96041e-08
-3.94043e-05
2.78664e-08
-3.94029e-05
1.48469e-08
-3.94212e-05
2.82148e-08
-3.94352e-05
4.70135e-08
-3.94204e-05
2.08626e-08
-3.94191e-05
1.86974e-08
-3.94317e-05
3.45569e-08
-3.94323e-05
6.67019e-09
-3.94349e-05
-1.50566e-08
-3.94362e-05
-2.40436e-08
-3.94329e-05
-1.80239e-08
-3.94231e-05
-2.37298e-08
-3.9418e-05
-3.15804e-08
-3.94001e-05
-9.78524e-09
-3.93938e-05
-7.17592e-09
-3.94153e-05
-2.44282e-09
-3.94141e-05
3.10135e-09
-3.9414e-05
2.61813e-08
-3.94234e-05
3.70603e-08
-3.94268e-05
1.57967e-08
-3.94303e-05
1.20234e-08
-3.94365e-05
1.66828e-08
-3.94386e-05
2.58128e-08
-3.9439e-05
3.10026e-08
-3.94335e-05
7.16009e-09
-3.9442e-05
-4.5721e-09
-3.94503e-05
-2.30351e-08
-3.94518e-05
-9.35612e-09
-3.94393e-05
-2.6001e-08
-3.94223e-05
-3.88766e-08
-3.94248e-05
-6.72883e-09
-3.94262e-05
-1.33367e-08
-3.94251e-05
-2.69233e-08
-3.94316e-05
-8.56852e-09
-3.94214e-05
-6.68844e-10
-3.94186e-05
-1.40673e-08
-3.94207e-05
-2.35294e-08
-3.94042e-05
4.85372e-09
-3.93995e-05
-5.60548e-09
-3.93979e-05
-2.81131e-08
-3.94029e-05
6.60678e-09
-3.94049e-05
8.81652e-09
-3.93948e-05
-5.60292e-09
-3.94009e-05
5.22566e-09
-3.94115e-05
1.00907e-08
-3.94144e-05
-1.34415e-08
-3.94117e-05
-3.95725e-08
-3.94154e-05
-5.72509e-08
-3.942e-05
-8.60595e-08
-3.94096e-05
-1.42022e-07
-3.94138e-05
-1.7934e-07
-3.9427e-05
-2.09619e-07
-3.94398e-05
-2.7131e-07
-3.9464e-05
-3.43497e-07
-3.94795e-05
-4.36904e-07
-3.94923e-05
-5.32463e-07
-3.95041e-05
-6.35399e-07
-3.95151e-05
-7.53216e-07
-3.95257e-05
-8.84873e-07
-3.95362e-05
-1.02999e-06
-3.95466e-05
-1.18687e-06
-3.95578e-05
-1.35268e-06
-3.95705e-05
-1.52406e-06
-3.95858e-05
-1.69747e-06
-3.96048e-05
-1.86881e-06
-3.96286e-05
-2.03335e-06
-3.96595e-05
-2.18588e-06
-3.96999e-05
-2.32199e-06
-3.97522e-05
-2.43869e-06
-3.98195e-05
-2.53395e-06
-3.99046e-05
-2.60701e-06
-4.00092e-05
-2.6583e-06
-4.01348e-05
-2.68906e-06
-4.02818e-05
-2.70107e-06
-4.045e-05
-2.69654e-06
-4.0639e-05
-2.67808e-06
-4.0848e-05
-2.64874e-06
-4.1076e-05
-2.61173e-06
-4.1322e-05
-2.57044e-06
-4.15849e-05
-2.52848e-06
-4.18634e-05
-2.48916e-06
-4.21563e-05
-2.45501e-06
-4.24624e-05
-2.42626e-06
-4.27806e-05
-2.39859e-06
-4.31094e-05
-2.35998e-06
-4.34455e-05
-2.286e-06
-4.37811e-05
-2.13432e-06
-4.40987e-05
-1.84134e-06
-4.4364e-05
-1.31453e-06
-4.45411e-05
-4.46326e-07
-4.46361e-05
9.36543e-07
-4.46887e-05
3.22535e-06
-4.47228e-05
7.17491e-06
-4.44379e-05
1.43078e-05
2.61674e-05
-4.16283e-05
-3.94138e-05
1.20203e-07
-3.93953e-05
2.83065e-08
-3.9394e-05
3.24102e-08
-3.9403e-05
2.92281e-08
-3.94165e-05
3.31437e-08
-3.93987e-05
9.99924e-09
-3.94045e-05
2.06656e-08
-3.94225e-05
4.62686e-08
-3.9412e-05
3.64405e-08
-3.94135e-05
2.2391e-08
-3.94299e-05
3.51242e-08
-3.94202e-05
2.48332e-08
-3.94135e-05
-3.25276e-11
-3.94309e-05
2.36351e-09
-3.94392e-05
-1.5718e-08
-3.94125e-05
-4.47797e-08
-3.94078e-05
-2.84099e-08
-3.94313e-05
-8.05143e-09
-3.94016e-05
-3.94884e-08
-3.93944e-05
-1.444e-08
-3.94245e-05
2.77208e-08
-3.9429e-05
7.57761e-09
-3.9418e-05
1.51468e-08
-3.94113e-05
3.04023e-08
-3.94247e-05
2.91736e-08
-3.94374e-05
2.47173e-08
-3.9442e-05
2.12742e-08
-3.94357e-05
1.95201e-08
-3.94306e-05
2.59076e-08
-3.94325e-05
9.05843e-09
-3.94538e-05
1.67141e-08
-3.94633e-05
-1.34907e-08
-3.94428e-05
-2.98308e-08
-3.94352e-05
-3.36319e-08
-3.94353e-05
-3.88176e-08
-3.94184e-05
-2.35793e-08
-3.94263e-05
-5.45666e-09
-3.94404e-05
-1.28253e-08
-3.94274e-05
-2.1578e-08
-3.94127e-05
-1.53249e-08
-3.94214e-05
-5.38827e-09
-3.94312e-05
-1.37863e-08
-3.93943e-05
-3.20032e-08
-3.93872e-05
-1.27143e-08
-3.94115e-05
-3.7761e-09
-3.94027e-05
-2.25716e-09
-3.93893e-05
-4.53209e-09
-3.93992e-05
4.23909e-09
-3.94164e-05
2.24273e-08
-3.94269e-05
2.0632e-08
-3.94464e-05
6.06508e-09
-3.94421e-05
-4.38636e-08
-3.94379e-05
-6.14352e-08
-3.94481e-05
-7.58586e-08
-3.94628e-05
-1.27343e-07
-3.9492e-05
-1.50109e-07
-3.95148e-05
-1.86878e-07
-3.95503e-05
-2.35827e-07
-3.96042e-05
-2.89559e-07
-3.96655e-05
-3.75653e-07
-3.97345e-05
-4.63385e-07
-3.98095e-05
-5.60392e-07
-3.98942e-05
-6.68549e-07
-3.99904e-05
-7.8864e-07
-4.00996e-05
-9.20869e-07
-4.02231e-05
-1.06333e-06
-4.03625e-05
-1.21329e-06
-4.05191e-05
-1.36747e-06
-4.06936e-05
-1.52298e-06
-4.08859e-05
-1.67649e-06
-4.10969e-05
-1.8223e-06
-4.13285e-05
-1.95434e-06
-4.15815e-05
-2.06893e-06
-4.18566e-05
-2.16359e-06
-4.21542e-05
-2.2364e-06
-4.2474e-05
-2.28718e-06
-4.28151e-05
-2.31722e-06
-4.31759e-05
-2.32828e-06
-4.35546e-05
-2.3223e-06
-4.39496e-05
-2.30154e-06
-4.43589e-05
-2.26878e-06
-4.47804e-05
-2.22723e-06
-4.52119e-05
-2.18028e-06
-4.56511e-05
-2.13128e-06
-4.6096e-05
-2.08353e-06
-4.6545e-05
-2.0402e-06
-4.69964e-05
-2.00361e-06
-4.74486e-05
-1.97398e-06
-4.78998e-05
-1.94746e-06
-4.83463e-05
-1.91345e-06
-4.87817e-05
-1.85063e-06
-4.91929e-05
-1.72313e-06
-4.95551e-05
-1.47913e-06
-4.98219e-05
-1.0477e-06
-4.99432e-05
-3.24994e-07
-4.98836e-05
8.76862e-07
-4.95819e-05
2.92371e-06
-4.8893e-05
6.48597e-06
-4.72445e-05
1.26593e-05
2.17479e-05
-4.28249e-05
-3.94179e-05
9.18134e-08
-3.94094e-05
1.97641e-08
-3.94017e-05
2.47212e-08
-3.94035e-05
3.10204e-08
-3.93957e-05
2.53926e-08
-3.93917e-05
5.97798e-09
-3.94026e-05
3.15275e-08
-3.94019e-05
4.55765e-08
-3.93909e-05
2.54442e-08
-3.94014e-05
3.2867e-08
-3.94162e-05
4.99218e-08
-3.94201e-05
2.873e-08
-3.94229e-05
2.78586e-09
-3.94041e-05
-1.64254e-08
-3.94085e-05
-1.13137e-08
-3.94155e-05
-3.77429e-08
-3.94127e-05
-3.12373e-08
-3.9418e-05
-2.78348e-09
-3.94049e-05
-5.25279e-08
-3.94107e-05
-8.71813e-09
-3.9409e-05
2.6031e-08
-3.9405e-05
3.57097e-09
-3.94223e-05
3.25131e-08
-3.94154e-05
2.34715e-08
-3.94176e-05
3.13395e-08
-3.94308e-05
3.79545e-08
-3.94383e-05
2.87644e-08
-3.94476e-05
2.88461e-08
-3.94171e-05
-4.63139e-09
-3.94229e-05
1.48595e-08
-3.94488e-05
4.26076e-08
-3.94466e-05
-1.56475e-08
-3.94219e-05
-5.45352e-08
-3.94262e-05
-2.93604e-08
-3.94404e-05
-2.46193e-08
-3.94141e-05
-4.98134e-08
-3.94197e-05
9.48838e-11
-3.94266e-05
-5.93511e-09
-3.94149e-05
-3.32171e-08
-3.94151e-05
-1.51384e-08
-3.94169e-05
-3.67034e-09
-3.94122e-05
-1.84478e-08
-3.93913e-05
-5.2897e-08
-3.93946e-05
-9.4112e-09
-3.9426e-05
2.75796e-08
-3.94026e-05
-2.55919e-08
-3.93979e-05
-9.28739e-09
-3.94327e-05
3.90287e-08
-3.94387e-05
2.84792e-08
-3.9432e-05
1.39251e-08
-3.94407e-05
1.47558e-08
-3.94592e-05
-2.53867e-08
-3.94649e-05
-5.5742e-08
-3.94801e-05
-6.06288e-08
-3.95144e-05
-9.30442e-08
-3.95493e-05
-1.1523e-07
-3.9592e-05
-1.44193e-07
-3.96478e-05
-1.79991e-07
-3.97089e-05
-2.28474e-07
-3.97929e-05
-2.91643e-07
-3.98945e-05
-3.6176e-07
-4.00123e-05
-4.42578e-07
-4.01493e-05
-5.31567e-07
-4.03081e-05
-6.29802e-07
-4.04911e-05
-7.37907e-07
-4.07005e-05
-8.53921e-07
-4.09384e-05
-9.75431e-07
-4.12062e-05
-1.09961e-06
-4.15039e-05
-1.2253e-06
-4.18311e-05
-1.34927e-06
-4.21889e-05
-1.4645e-06
-4.25772e-05
-1.56608e-06
-4.29944e-05
-1.65171e-06
-4.34385e-05
-1.71946e-06
-4.39067e-05
-1.76827e-06
-4.43956e-05
-1.7983e-06
-4.4902e-05
-1.81076e-06
-4.54231e-05
-1.80726e-06
-4.59557e-05
-1.78963e-06
-4.64971e-05
-1.76018e-06
-4.70442e-05
-1.72167e-06
-4.75942e-05
-1.67716e-06
-4.81448e-05
-1.62968e-06
-4.8694e-05
-1.58214e-06
-4.92401e-05
-1.53744e-06
-4.97818e-05
-1.49853e-06
-5.03176e-05
-1.46772e-06
-5.08463e-05
-1.44531e-06
-5.13655e-05
-1.42832e-06
-5.18704e-05
-1.4085e-06
-5.2352e-05
-1.36902e-06
-5.27933e-05
-1.2818e-06
-5.3165e-05
-1.10751e-06
-5.34142e-05
-7.98454e-07
-5.34778e-05
-2.61435e-07
-5.32769e-05
6.76036e-07
-5.26695e-05
2.31624e-06
-5.13758e-05
5.19231e-06
-4.87276e-05
1.0011e-05
1.64408e-05
-4.34204e-05
-3.94114e-05
1.73344e-09
-3.94173e-05
2.56377e-08
-3.94055e-05
1.29249e-08
-3.93816e-05
7.15362e-09
-3.93782e-05
2.1981e-08
-3.93925e-05
2.0215e-08
-3.93931e-05
3.21309e-08
-3.93987e-05
5.12316e-08
-3.93906e-05
1.72794e-08
-3.93935e-05
3.58166e-08
-3.9405e-05
6.14449e-08
-3.9405e-05
2.86948e-08
-3.94147e-05
1.24877e-08
-3.94137e-05
-1.73845e-08
-3.94038e-05
-2.12576e-08
-3.94165e-05
-2.50727e-08
-3.94254e-05
-2.23404e-08
-3.94017e-05
-2.64269e-08
-3.94037e-05
-5.05334e-08
-3.94125e-05
8.25669e-11
-3.94042e-05
1.76638e-08
-3.93927e-05
-7.90913e-09
-3.94012e-05
4.10651e-08
-3.94166e-05
3.88702e-08
-3.94123e-05
2.70555e-08
-3.94149e-05
4.0467e-08
-3.94292e-05
4.316e-08
-3.94257e-05
2.52476e-08
-3.94175e-05
-1.28207e-08
-3.94222e-05
1.96427e-08
-3.94045e-05
2.48211e-08
-3.94094e-05
-1.06557e-08
-3.94246e-05
-3.93707e-08
-3.94279e-05
-2.60833e-08
-3.94265e-05
-2.59862e-08
-3.94308e-05
-4.55651e-08
-3.94118e-05
-1.88596e-08
-3.94145e-05
-3.23282e-09
-3.94285e-05
-1.92485e-08
-3.94032e-05
-4.04055e-08
-3.9396e-05
-1.08761e-08
-3.93964e-05
-1.81137e-08
-3.94042e-05
-4.5097e-08
-3.94123e-05
-1.22403e-09
-3.94115e-05
2.67557e-08
-3.94231e-05
-1.40195e-08
-3.94326e-05
2.1441e-10
-3.94363e-05
4.275e-08
-3.94457e-05
3.78409e-08
-3.94448e-05
1.30518e-08
-3.94256e-05
-4.42147e-09
-3.94521e-05
1.09076e-09
-3.94967e-05
-1.11812e-08
-3.9515e-05
-4.2308e-08
-3.95538e-05
-5.41938e-08
-3.96013e-05
-6.77889e-08
-3.96462e-05
-9.92634e-08
-3.97061e-05
-1.2007e-07
-3.97814e-05
-1.53172e-07
-3.98806e-05
-1.92456e-07
-4.00006e-05
-2.4175e-07
-4.01437e-05
-2.99525e-07
-4.03131e-05
-3.62144e-07
-4.05122e-05
-4.30667e-07
-4.07444e-05
-5.05715e-07
-4.10123e-05
-5.85997e-07
-4.13182e-05
-6.69567e-07
-4.16635e-05
-7.54336e-07
-4.20478e-05
-8.40944e-07
-4.24717e-05
-9.2542e-07
-4.29345e-05
-1.0017e-06
-4.34331e-05
-1.06743e-06
-4.39637e-05
-1.12115e-06
-4.45217e-05
-1.1615e-06
-4.51021e-05
-1.18779e-06
-4.57002e-05
-1.20022e-06
-4.63113e-05
-1.1997e-06
-4.69311e-05
-1.18747e-06
-4.75557e-05
-1.165e-06
-4.81817e-05
-1.13419e-06
-4.8806e-05
-1.09733e-06
-4.94263e-05
-1.05688e-06
-5.00407e-05
-1.01532e-06
-5.06477e-05
-9.75085e-07
-5.12464e-05
-9.38728e-07
-5.1836e-05
-9.08972e-07
-5.24156e-05
-8.88138e-07
-5.29838e-05
-8.77129e-07
-5.35376e-05
-8.74491e-07
-5.40711e-05
-8.75008e-07
-5.45729e-05
-8.67173e-07
-5.50233e-05
-8.31404e-07
-5.539e-05
-7.40777e-07
-5.56196e-05
-5.68901e-07
-5.56348e-05
-2.46209e-07
-5.53198e-05
3.60996e-07
-5.44719e-05
1.46839e-06
-5.27181e-05
3.43851e-06
-4.93893e-05
6.68216e-06
1.07041e-05
-4.36526e-05
-3.93955e-05
3.29117e-09
-3.93926e-05
2.27319e-08
-3.93898e-05
1.00713e-08
-3.93811e-05
-1.53299e-09
-3.93784e-05
1.92817e-08
-3.93895e-05
3.13408e-08
-3.9397e-05
3.96037e-08
-3.93958e-05
5.00065e-08
-3.94e-05
2.1483e-08
-3.93937e-05
2.95819e-08
-3.93947e-05
6.23836e-08
-3.94007e-05
3.47344e-08
-3.93961e-05
7.86452e-09
-3.94019e-05
-1.15939e-08
-3.94193e-05
-3.84136e-09
-3.94216e-05
-2.27412e-08
-3.94192e-05
-2.4821e-08
-3.94064e-05
-3.91871e-08
-3.9404e-05
-5.29381e-08
-3.93828e-05
-2.11557e-08
-3.93945e-05
2.94359e-08
-3.94173e-05
1.48641e-08
-3.93903e-05
1.40835e-08
-3.94056e-05
5.41147e-08
-3.94131e-05
3.46347e-08
-3.93934e-05
2.07147e-08
-3.94042e-05
5.39405e-08
-3.94098e-05
3.08409e-08
-3.94199e-05
-2.63451e-09
-3.94013e-05
9.45567e-10
-3.93989e-05
2.24442e-08
-3.94201e-05
1.0578e-08
-3.94261e-05
-3.33752e-08
-3.94168e-05
-3.53754e-08
-3.9415e-05
-2.77933e-08
-3.94321e-05
-2.84536e-08
-3.94206e-05
-3.03341e-08
-3.94075e-05
-1.63396e-08
-3.9408e-05
-1.88119e-08
-3.93994e-05
-4.90042e-08
-3.93786e-05
-3.16781e-08
-3.9387e-05
-9.66822e-09
-3.94087e-05
-2.34373e-08
-3.94099e-05
-4.44426e-11
-3.94003e-05
1.71527e-08
-3.9427e-05
1.27567e-08
-3.94515e-05
2.4669e-08
-3.94337e-05
2.49869e-08
-3.94311e-05
3.52086e-08
-3.94512e-05
3.3148e-08
-3.94619e-05
6.26742e-09
-3.94639e-05
3.07364e-09
-3.94883e-05
1.32298e-08
-3.95315e-05
9.46844e-10
-3.95698e-05
-1.59122e-08
-3.96172e-05
-2.04185e-08
-3.96766e-05
-3.9838e-08
-3.97413e-05
-5.53772e-08
-3.98254e-05
-6.90572e-08
-3.99304e-05
-8.74137e-08
-4.00586e-05
-1.13562e-07
-4.02157e-05
-1.42464e-07
-4.04044e-05
-1.7346e-07
-4.06278e-05
-2.0723e-07
-4.08897e-05
-2.43809e-07
-4.11933e-05
-2.82394e-07
-4.1541e-05
-3.21886e-07
-4.19341e-05
-3.61217e-07
-4.23736e-05
-4.01443e-07
-4.28594e-05
-4.3964e-07
-4.33883e-05
-4.72779e-07
-4.39556e-05
-5.00169e-07
-4.45558e-05
-5.2094e-07
-4.51829e-05
-5.34362e-07
-4.58307e-05
-5.4006e-07
-4.64928e-05
-5.38104e-07
-4.71636e-05
-5.28906e-07
-4.7838e-05
-5.13083e-07
-4.85115e-05
-4.91435e-07
-4.91807e-05
-4.65039e-07
-4.98427e-05
-4.35291e-07
-5.04958e-05
-4.03816e-07
-5.11387e-05
-3.72403e-07
-5.17708e-05
-3.43015e-07
-5.23916e-05
-3.1791e-07
-5.3001e-05
-2.99615e-07
-5.35985e-05
-2.90597e-07
-5.4183e-05
-2.9267e-07
-5.47511e-05
-3.06397e-07
-5.52959e-05
-3.30149e-07
-5.58046e-05
-3.5853e-07
-5.62556e-05
-3.80363e-07
-5.6615e-05
-3.81388e-07
-5.68334e-05
-3.50454e-07
-5.68225e-05
-2.57143e-07
-5.64367e-05
-2.48042e-08
-5.54346e-05
4.66318e-07
-5.33857e-05
1.38955e-06
-4.96417e-05
2.9382e-06
4.79102e-06
-4.37286e-05
-3.93991e-05
4.92837e-08
-3.93962e-05
1.99064e-08
-3.93874e-05
1.27669e-09
-3.94024e-05
1.34607e-08
-3.93991e-05
1.59524e-08
-3.93926e-05
2.47976e-08
-3.94106e-05
5.76236e-08
-3.93883e-05
2.77682e-08
-3.93952e-05
2.83577e-08
-3.94161e-05
5.04474e-08
-3.93866e-05
3.28887e-08
-3.93864e-05
3.45091e-08
-3.93927e-05
1.42362e-08
-3.94131e-05
8.74827e-09
-3.94313e-05
1.4409e-08
-3.94203e-05
-3.37296e-08
-3.93874e-05
-5.77364e-08
-3.9384e-05
-4.25961e-08
-3.94182e-05
-1.87178e-08
-3.94219e-05
-1.74762e-08
-3.94042e-05
1.17222e-08
-3.94078e-05
1.84429e-08
-3.94088e-05
1.51592e-08
-3.93965e-05
4.17561e-08
-3.94026e-05
4.07481e-08
-3.94091e-05
2.72566e-08
-3.93984e-05
4.32071e-08
-3.93938e-05
2.6187e-08
-3.94148e-05
1.83807e-08
-3.94261e-05
1.22297e-08
-3.94108e-05
7.21345e-09
-3.94044e-05
4.13124e-09
-3.94235e-05
-1.42917e-08
-3.94136e-05
-4.52086e-08
-3.94155e-05
-2.59254e-08
-3.94287e-05
-1.52982e-08
-3.94298e-05
-2.91882e-08
-3.94065e-05
-3.96852e-08
-3.93871e-05
-3.82096e-08
-3.94015e-05
-3.45508e-08
-3.93919e-05
-4.12373e-08
-3.93933e-05
-8.31447e-09
-3.94125e-05
-4.2437e-09
-3.94082e-05
-4.36621e-09
-3.939e-05
-9.87254e-10
-3.93995e-05
2.2261e-08
-3.94367e-05
6.18102e-08
-3.94418e-05
3.0108e-08
-3.94309e-05
2.42962e-08
-3.94456e-05
4.78199e-08
-3.94627e-05
2.34053e-08
-3.94837e-05
2.40367e-08
-3.94925e-05
2.20433e-08
-3.95219e-05
3.033e-08
-3.95688e-05
3.10008e-08
-3.96119e-05
2.2693e-08
-3.96782e-05
2.65262e-08
-3.97515e-05
1.78401e-08
-3.98418e-05
2.13013e-08
-3.99494e-05
2.01389e-08
-4.00807e-05
1.77159e-08
-4.02436e-05
2.04608e-08
-4.04406e-05
2.35842e-08
-4.06753e-05
2.74507e-08
-4.09515e-05
3.23949e-08
-4.12726e-05
3.86773e-08
-4.16409e-05
4.64328e-08
-4.20577e-05
5.5601e-08
-4.25253e-05
6.61286e-08
-4.30424e-05
7.74539e-08
-4.36044e-05
8.9202e-08
-4.42058e-05
1.01318e-07
-4.48405e-05
1.13734e-07
-4.55014e-05
1.26477e-07
-4.61811e-05
1.3969e-07
-4.68728e-05
1.53595e-07
-4.75702e-05
1.68458e-07
-4.82678e-05
1.84504e-07
-4.89611e-05
2.01861e-07
-4.96466e-05
2.20495e-07
-5.0322e-05
2.40092e-07
-5.09858e-05
2.59987e-07
-5.16373e-05
2.79117e-07
-5.22763e-05
2.96009e-07
-5.2903e-05
3.08726e-07
-5.35175e-05
3.14883e-07
-5.41198e-05
3.1175e-07
-5.47089e-05
2.96451e-07
-5.52815e-05
2.66161e-07
-5.58301e-05
2.18498e-07
-5.6341e-05
1.52372e-07
-5.679e-05
6.8585e-08
-5.71446e-05
-2.68062e-08
-5.73588e-05
-1.36207e-07
-5.73428e-05
-2.7312e-07
-5.69396e-05
-4.28033e-07
-5.58817e-05
-5.91546e-07
-5.37129e-05
-7.79235e-07
-4.97768e-05
-9.97986e-07
-1.19601e-06
-4.37897e-05
-3.94183e-05
5.54861e-08
-3.94194e-05
2.10354e-08
-3.94112e-05
-7.00434e-09
-3.94124e-05
1.46525e-08
-3.94069e-05
1.05419e-08
-3.94047e-05
2.25398e-08
-3.93977e-05
5.06438e-08
-3.9397e-05
2.70715e-08
-3.94124e-05
4.37885e-08
-3.94099e-05
4.78545e-08
-3.93983e-05
2.13474e-08
-3.93873e-05
2.35347e-08
-3.93977e-05
2.4626e-08
-3.94231e-05
3.41482e-08
-3.94068e-05
-1.95765e-09
-3.94038e-05
-3.67343e-08
-3.94083e-05
-5.31816e-08
-3.93841e-05
-6.6836e-08
-3.9397e-05
-5.76995e-09
-3.94245e-05
1.00084e-08
-3.94169e-05
4.08025e-09
-3.94195e-05
2.10779e-08
-3.94344e-05
3.0064e-08
-3.93979e-05
5.25925e-09
-3.93955e-05
3.83884e-08
-3.94302e-05
6.18984e-08
-3.94228e-05
3.58379e-08
-3.94034e-05
6.73569e-09
-3.94091e-05
2.4141e-08
-3.94296e-05
3.27292e-08
-3.94122e-05
-1.01934e-08
-3.93958e-05
-1.22563e-08
-3.94102e-05
1.23518e-10
-3.94265e-05
-2.89761e-08
-3.94137e-05
-3.87133e-08
-3.94184e-05
-1.0543e-08
-3.94224e-05
-2.52712e-08
-3.94073e-05
-5.47596e-08
-3.94004e-05
-4.5086e-08
-3.93981e-05
-3.68405e-08
-3.94053e-05
-3.40407e-08
-3.94011e-05
-1.25637e-08
-3.93974e-05
-7.91907e-09
-3.93887e-05
-1.30923e-08
-3.93869e-05
-2.76291e-09
-3.94081e-05
4.34407e-08
-3.94272e-05
8.09788e-08
-3.9425e-05
2.79111e-08
-3.94276e-05
2.68998e-08
-3.94378e-05
5.79539e-08
-3.9446e-05
3.15964e-08
-3.94705e-05
4.85367e-08
-3.9497e-05
4.85375e-08
-3.95173e-05
5.06516e-08
-3.95587e-05
7.23984e-08
-3.96105e-05
7.45175e-08
-3.96684e-05
8.4382e-08
-3.97419e-05
9.13289e-08
-3.98287e-05
1.08098e-07
-3.99367e-05
1.28152e-07
-4.0069e-05
1.5006e-07
-4.02312e-05
1.82698e-07
-4.0427e-05
2.19362e-07
-4.06602e-05
2.60587e-07
-4.09345e-05
3.06715e-07
-4.12532e-05
3.57365e-07
-4.16184e-05
4.11702e-07
-4.20314e-05
4.68557e-07
-4.24941e-05
5.28846e-07
-4.30055e-05
5.88823e-07
-4.3561e-05
6.44717e-07
-4.41554e-05
6.95717e-07
-4.47826e-05
7.40906e-07
-4.54357e-05
7.79633e-07
-4.61078e-05
8.11804e-07
-4.67921e-05
8.37899e-07
-4.74825e-05
8.58819e-07
-4.81736e-05
8.75587e-07
-4.88609e-05
8.89223e-07
-4.95412e-05
9.00723e-07
-5.02119e-05
9.1085e-07
-5.08718e-05
9.19896e-07
-5.15203e-05
9.27531e-07
-5.2157e-05
9.32795e-07
-5.27824e-05
9.34088e-07
-5.33967e-05
9.29148e-07
-5.39998e-05
9.1492e-07
-5.45908e-05
8.87397e-07
-5.5166e-05
8.41386e-07
-5.57178e-05
7.70311e-07
-5.62317e-05
6.66227e-07
-5.66828e-05
5.19698e-07
-5.70356e-05
3.26001e-07
-5.72435e-05
7.16671e-08
-5.72241e-05
-2.92509e-07
-5.68232e-05
-8.28884e-07
-5.57736e-05
-1.64115e-06
-5.36189e-05
-2.93395e-06
-4.97084e-05
-4.90854e-06
-7.16632e-06
-4.3738e-05
-3.94343e-05
9.40308e-08
-3.94344e-05
2.11069e-08
-3.94351e-05
-6.27078e-09
-3.9403e-05
-1.74024e-08
-3.9418e-05
2.54617e-08
-3.94453e-05
4.99069e-08
-3.94022e-05
7.50661e-09
-3.93949e-05
1.97941e-08
-3.94241e-05
7.30191e-08
-3.9422e-05
4.57049e-08
-3.94071e-05
6.43604e-09
-3.93917e-05
8.16252e-09
-3.94016e-05
3.45414e-08
-3.94125e-05
4.50486e-08
-3.94159e-05
1.37901e-09
-3.94106e-05
-4.20132e-08
-3.93981e-05
-6.56192e-08
-3.94183e-05
-4.67234e-08
-3.94106e-05
-1.34128e-08
-3.94034e-05
2.8381e-09
-3.94117e-05
1.23834e-08
-3.94191e-05
2.8466e-08
-3.94153e-05
2.62522e-08
-3.94139e-05
3.79261e-09
-3.9413e-05
3.75552e-08
-3.94054e-05
5.4271e-08
-3.94104e-05
4.08079e-08
-3.94089e-05
5.29363e-09
-3.94093e-05
2.45217e-08
-3.93987e-05
2.20944e-08
-3.94132e-05
4.30563e-09
-3.94195e-05
-5.95747e-09
-3.93872e-05
-3.21746e-08
-3.94016e-05
-1.45518e-08
-3.9418e-05
-2.23179e-08
-3.94047e-05
-2.38303e-08
-3.93944e-05
-3.56086e-08
-3.93981e-05
-5.09891e-08
-3.94111e-05
-3.21018e-08
-3.94234e-05
-2.45138e-08
-3.94186e-05
-3.88906e-08
-3.93977e-05
-3.34529e-08
-3.93745e-05
-3.10832e-08
-3.93749e-05
-1.27666e-08
-3.94135e-05
3.58882e-08
-3.94316e-05
6.15398e-08
-3.94e-05
4.9409e-08
-3.94069e-05
3.47938e-08
-3.94353e-05
5.52744e-08