/*--------------------------------*- C++ -*----------------------------------*\
| =========                 |                                                 |
| \\      /  F ield         | OpenFOAM: The Open Source CFD Toolbox           |
|  \\    /   O peration     | Version:  2.1.0                                 |
|   \\  /    A nd           | Web:      www.OpenFOAM.org                      |
|    \\/     M anipulation  |                                                 |
\*---------------------------------------------------------------------------*/
FoamFile
{
    version     2.0;
    format      ascii;
    class       volVectorField;
    location    "0.03";
    object      U;
}
// * * * * * * * * * * * * * * * * * * * * * * * * * * * * * * * * * * * * * //

dimensions      [0 1 -1 0 0 0 0];

internalField   nonuniform List<vector> 
6400
(
(-1.7389 0.000532014 0)
(-1.74032 0.000257095 0)
(-1.74115 0.000128192 0)
(-1.74159 9.15378e-05 0)
(-1.74191 6.82214e-05 0)
(-1.74217 6.43721e-05 0)
(-1.74238 4.04797e-05 0)
(-1.74253 3.26174e-05 0)
(-1.74278 9.33965e-05 0)
(-1.74321 0.000123307 0)
(-1.74363 8.97611e-05 0)
(-1.74392 5.32811e-05 0)
(-1.74404 7.62635e-06 0)
(-1.74399 -3.3846e-05 0)
(-1.74381 -5.75768e-05 0)
(-1.74358 -5.70904e-05 0)
(-1.74337 -4.96314e-05 0)
(-1.74318 -4.43087e-05 0)
(-1.74313 1.84222e-05 0)
(-1.74313 -1.73534e-05 0)
(-1.74297 -6.51829e-05 0)
(-1.74287 1.35182e-05 0)
(-1.74301 6.04556e-05 0)
(-1.74325 6.2168e-05 0)
(-1.74346 3.97389e-05 0)
(-1.74361 3.6861e-05 0)
(-1.74378 4.66631e-05 0)
(-1.744 6.52044e-05 0)
(-1.74432 9.85952e-05 0)
(-1.74465 6.56102e-05 0)
(-1.74473 -2.75606e-05 0)
(-1.7445 -8.30818e-05 0)
(-1.74425 -4.69211e-05 0)
(-1.74409 -3.18358e-05 0)
(-1.74394 -4.42385e-05 0)
(-1.74376 -4.92191e-05 0)
(-1.74355 -5.4521e-05 0)
(-1.7433 -7.13943e-05 0)
(-1.74303 -6.24213e-05 0)
(-1.74292 3.2079e-06 0)
(-1.74283 -4.16156e-05 0)
(-1.74267 -4.23493e-05 0)
(-1.74268 4.56577e-05 0)
(-1.74273 -1.90742e-05 0)
(-1.74256 -6.22845e-05 0)
(-1.74243 -1.17372e-05 0)
(-1.7424 3.3641e-06 0)
(-1.74242 5.63755e-06 0)
(-1.74242 -4.20148e-06 0)
(-1.74238 -1.58583e-05 0)
(-1.74226 -4.70157e-05 0)
(-1.74194 -0.000108932 0)
(-1.74134 -0.000192461 0)
(-1.74035 -0.00030523 0)
(-1.7389 -0.000421651 0)
(-1.73688 -0.000591796 0)
(-1.73412 -0.000795804 0)
(-1.73047 -0.00103228 0)
(-1.72574 -0.00134197 0)
(-1.71976 -0.00166287 0)
(-1.7124 -0.00203134 0)
(-1.70347 -0.00245729 0)
(-1.69269 -0.00295228 0)
(-1.6798 -0.00352407 0)
(-1.66447 -0.00417366 0)
(-1.6464 -0.00489914 0)
(-1.62531 -0.00569491 0)
(-1.60095 -0.00654689 0)
(-1.57312 -0.00743649 0)
(-1.54171 -0.00834683 0)
(-1.50668 -0.00926308 0)
(-1.46803 -0.0101691 0)
(-1.42583 -0.011048 0)
(-1.38024 -0.0118846 0)
(-1.33144 -0.0126664 0)
(-1.27968 -0.0133823 0)
(-1.22523 -0.0140257 0)
(-1.16839 -0.0145951 0)
(-1.10946 -0.0150918 0)
(-1.04871 -0.0155198 0)
(-0.986418 -0.0158858 0)
(-0.922797 -0.016202 0)
(-0.858014 -0.0164865 0)
(-0.792157 -0.0167609 0)
(-0.725229 -0.0170445 0)
(-0.657159 -0.0173561 0)
(-0.5878 -0.0177161 0)
(-0.516937 -0.018138 0)
(-0.444349 -0.0186123 0)
(-0.369949 -0.0190808 0)
(-0.294091 -0.0193773 0)
(-0.218258 -0.0190922 0)
(-0.146384 -0.017387 0)
(-0.0862953 -0.0131143 0)
(-0.0473153 -0.00666441 0)
(-0.0359027 0.000870537 0)
(-0.0574107 0.0100287 0)
(-0.131718 0.0275719 0)
(-0.319746 0.0668857 0)
(-0.897794 0.18633 0)
(-1.94079 0.00162417 0)
(-1.94227 0.000739547 0)
(-1.943 0.000362264 0)
(-1.94341 0.000280906 0)
(-1.94373 0.000195639 0)
(-1.94399 0.000201185 0)
(-1.94424 0.000131469 0)
(-1.9444 8.65181e-05 0)
(-1.94461 0.000274986 0)
(-1.94505 0.000380247 0)
(-1.9455 0.000267518 0)
(-1.94578 0.000157949 0)
(-1.9459 1.89814e-05 0)
(-1.94582 -0.00010715 0)
(-1.9456 -0.000184056 0)
(-1.94533 -0.000179637 0)
(-1.94513 -0.000139053 0)
(-1.94492 -0.000145631 0)
(-1.9449 7.47311e-05 0)
(-1.94497 -3.45557e-05 0)
(-1.94479 -0.000215398 0)
(-1.94468 5.06457e-05 0)
(-1.94486 0.000192459 0)
(-1.94514 0.000194252 0)
(-1.94537 0.000119125 0)
(-1.94551 0.000101509 0)
(-1.94564 0.000134876 0)
(-1.94586 0.000192678 0)
(-1.94618 0.000296924 0)
(-1.9465 0.00019601 0)
(-1.94658 -9.54322e-05 0)
(-1.94624 -0.000277097 0)
(-1.94594 -0.000144397 0)
(-1.94577 -9.54912e-05 0)
(-1.9456 -0.000136592 0)
(-1.9454 -0.000150832 0)
(-1.9452 -0.000159894 0)
(-1.94496 -0.000207423 0)
(-1.94467 -0.000201728 0)
(-1.9446 3.80823e-05 0)
(-1.9446 -0.000105852 0)
(-1.94443 -0.000147077 0)
(-1.94448 0.000176963 0)
(-1.94464 -4.26846e-05 0)
(-1.94448 -0.000190161 0)
(-1.9444 -1.25364e-05 0)
(-1.94444 2.19765e-05 0)
(-1.94449 2.34174e-05 0)
(-1.94449 -2.17099e-05 0)
(-1.94439 -6.89972e-05 0)
(-1.94414 -0.000177194 0)
(-1.94361 -0.000399298 0)
(-1.94265 -0.000679055 0)
(-1.94115 -0.00106012 0)
(-1.93904 -0.00144179 0)
(-1.93618 -0.00200234 0)
(-1.93237 -0.00266506 0)
(-1.92751 -0.00340584 0)
(-1.92133 -0.00438823 0)
(-1.9138 -0.00537217 0)
(-1.90472 -0.0065039 0)
(-1.894 -0.00779545 0)
(-1.88138 -0.00927315 0)
(-1.86669 -0.0109529 0)
(-1.84975 -0.0128322 0)
(-1.83038 -0.0148976 0)
(-1.80846 -0.0171295 0)
(-1.78395 -0.0194956 0)
(-1.75671 -0.0219491 0)
(-1.72676 -0.0244401 0)
(-1.69413 -0.0269211 0)
(-1.65896 -0.0293441 0)
(-1.62141 -0.0316614 0)
(-1.58172 -0.0338321 0)
(-1.54014 -0.035825 0)
(-1.49695 -0.0376154 0)
(-1.45242 -0.0391907 0)
(-1.40684 -0.0405508 0)
(-1.36045 -0.0417017 0)
(-1.31349 -0.0426571 0)
(-1.26619 -0.0434399 0)
(-1.21871 -0.0440839 0)
(-1.17118 -0.0446368 0)
(-1.12368 -0.0451542 0)
(-1.07624 -0.0456902 0)
(-1.02883 -0.0462976 0)
(-0.981349 -0.0470276 0)
(-0.933685 -0.047908 0)
(-0.885771 -0.0488989 0)
(-0.837681 -0.0498314 0)
(-0.789776 -0.0502783 0)
(-0.74295 -0.0492719 0)
(-0.698851 -0.0449575 0)
(-0.66017 -0.0347725 0)
(-0.633111 -0.0180484 0)
(-0.629749 0.00454678 0)
(-0.664028 0.034387 0)
(-0.755681 0.0854946 0)
(-0.941184 0.190943 0)
(-1.39372 0.492872 0)
(-1.959 0.00257024 0)
(-1.96143 0.00112263 0)
(-1.95975 0.000528713 0)
(-1.96138 0.000468338 0)
(-1.96194 0.000314606 0)
(-1.96119 0.000336252 0)
(-1.96167 0.000252587 0)
(-1.96257 0.000125826 0)
(-1.96139 0.000436835 0)
(-1.96381 0.000676144 0)
(-1.96289 0.000439959 0)
(-1.96328 0.000254438 0)
(-1.9635 1.94291e-05 0)
(-1.96358 -0.000186976 0)
(-1.96312 -0.000342231 0)
(-1.96224 -0.000322084 0)
(-1.96392 -0.00020733 0)
(-1.96114 -0.000294059 0)
(-1.96368 0.000173768 0)
(-1.96188 -1.50684e-05 0)
(-1.96232 -0.000418891 0)
(-1.96164 0.000110708 0)
(-1.96353 0.000350406 0)
(-1.96185 0.000346269 0)
(-1.9635 0.000205878 0)
(-1.96314 0.000151327 0)
(-1.96306 0.000201882 0)
(-1.96287 0.000311973 0)
(-1.96465 0.000511552 0)
(-1.9638 0.000320434 0)
(-1.96392 -0.000204505 0)
(-1.96359 -0.000525119 0)
(-1.9634 -0.000249485 0)
(-1.96304 -0.000157491 0)
(-1.96296 -0.000229638 0)
(-1.96278 -0.000254219 0)
(-1.96239 -0.000260595 0)
(-1.96266 -0.000347981 0)
(-1.9619 -0.000354976 0)
(-1.96146 0.000122157 0)
(-1.96305 -0.000147447 0)
(-1.96112 -0.000316957 0)
(-1.96192 0.000376821 0)
(-1.9624 -3.20868e-05 0)
(-1.96121 -0.000356629 0)
(-1.96263 2.0424e-05 0)
(-1.96086 6.21325e-05 0)
(-1.96308 7.16949e-05 0)
(-1.9615 -2.93424e-05 0)
(-1.96161 -0.000110044 0)
(-1.96223 -0.000292694 0)
(-1.96256 -0.000697852 0)
(-1.95992 -0.00117097 0)
(-1.96056 -0.00181333 0)
(-1.95847 -0.00244063 0)
(-1.95782 -0.0033974 0)
(-1.95213 -0.00445797 0)
(-1.95322 -0.00564407 0)
(-1.945 -0.00724884 0)
(-1.94295 -0.00879897 0)
(-1.93592 -0.0105818 0)
(-1.92904 -0.0126009 0)
(-1.92081 -0.0148982 0)
(-1.9112 -0.0174812 0)
(-1.90008 -0.020341 0)
(-1.88734 -0.0234475 0)
(-1.87288 -0.0267624 0)
(-1.85668 -0.0302396 0)
(-1.83872 -0.0338137 0)
(-1.81903 -0.0374077 0)
(-1.79768 -0.0409426 0)
(-1.77482 -0.0443422 0)
(-1.75062 -0.0475325 0)
(-1.7253 -0.0504547 0)
(-1.69909 -0.0530703 0)
(-1.67225 -0.0553511 0)
(-1.64501 -0.0572901 0)
(-1.61759 -0.0588941 0)
(-1.59021 -0.0601733 0)
(-1.56306 -0.0611473 0)
(-1.53635 -0.0618511 0)
(-1.51027 -0.0623357 0)
(-1.48496 -0.062667 0)
(-1.46055 -0.0629198 0)
(-1.43714 -0.063169 0)
(-1.41482 -0.0634873 0)
(-1.39365 -0.063934 0)
(-1.37373 -0.0645292 0)
(-1.35522 -0.0651972 0)
(-1.33834 -0.06568 0)
(-1.32351 -0.0653971 0)
(-1.31136 -0.0631752 0)
(-1.30264 -0.0569697 0)
(-1.2981 -0.0439002 0)
(-1.2999 -0.0216259 0)
(-1.31156 0.0112255 0)
(-1.33887 0.0585316 0)
(-1.40283 0.136674 0)
(-1.5316 0.289007 0)
(-1.77903 0.67182 0)
(-1.9667 0.00291422 0)
(-1.9724 0.00131717 0)
(-1.96096 0.000649197 0)
(-1.97209 0.000587806 0)
(-1.96951 0.000361863 0)
(-1.96569 0.000508184 0)
(-1.96976 0.000362807 0)
(-1.97058 0.000195635 0)
(-1.96411 0.000666719 0)
(-1.97525 0.000864563 0)
(-1.9703 0.000510166 0)
(-1.96743 0.000424467 0)
(-1.97021 8.44228e-05 0)
(-1.96885 -0.000334723 0)
(-1.9713 -0.000531819 0)
(-1.96594 -0.000382032 0)
(-1.97437 -0.000290674 0)
(-1.96712 -0.000523353 0)
(-1.9723 0.000219007 0)
(-1.96963 -8.37709e-06 0)
(-1.96264 -0.000568608 0)
(-1.97174 0.000127486 0)
(-1.96941 0.000545652 0)
(-1.96769 0.000559659 0)
(-1.97118 0.000280925 0)
(-1.9696 0.000192004 0)
(-1.96845 0.000244614 0)
(-1.97047 0.000479157 0)
(-1.97137 0.000694283 0)
(-1.97363 0.000348593 0)
(-1.96694 -0.000299922 0)
(-1.96754 -0.000721873 0)
(-1.97305 -0.000286537 0)
(-1.96965 -0.000261817 0)
(-1.97229 -0.000410519 0)
(-1.96576 -0.00026712 0)
(-1.9711 -0.000339365 0)
(-1.96513 -0.000534568 0)
(-1.97249 -0.000402496 0)
(-1.96747 0.000206368 0)
(-1.97138 -0.000223479 0)
(-1.96764 -0.000531702 0)
(-1.96835 0.000511392 0)
(-1.97242 -2.05899e-05 0)
(-1.96073 -0.000560079 0)
(-1.97576 4.17416e-05 0)
(-1.96002 0.000128491 0)
(-1.97347 0.000109375 0)
(-1.9684 -2.17624e-05 0)
(-1.96559 -6.39449e-05 0)
(-1.97058 -0.000365767 0)
(-1.96893 -0.000867427 0)
(-1.96611 -0.00144349 0)
(-1.96802 -0.00218854 0)
(-1.96762 -0.00305994 0)
(-1.96699 -0.00427254 0)
(-1.96172 -0.00535702 0)
(-1.96794 -0.00681073 0)
(-1.9576 -0.00877628 0)
(-1.96346 -0.0107326 0)
(-1.95775 -0.0129145 0)
(-1.95497 -0.015337 0)
(-1.95123 -0.0181122 0)
(-1.94691 -0.021224 0)
(-1.94188 -0.0246611 0)
(-1.93609 -0.0283851 0)
(-1.92948 -0.0323397 0)
(-1.92206 -0.0364604 0)
(-1.91384 -0.040666 0)
(-1.90489 -0.0448612 0)
(-1.89528 -0.0489443 0)
(-1.88514 -0.0528178 0)
(-1.87461 -0.0563843 0)
(-1.86389 -0.0595733 0)
(-1.85316 -0.0623496 0)
(-1.84264 -0.0646847 0)
(-1.8325 -0.0665728 0)
(-1.82292 -0.068026 0)
(-1.81409 -0.0690624 0)
(-1.80614 -0.069712 0)
(-1.79917 -0.0700212 0)
(-1.79325 -0.0700533 0)
(-1.78845 -0.0698838 0)
(-1.78481 -0.0695948 0)
(-1.78239 -0.0692699 0)
(-1.78123 -0.0689885 0)
(-1.78134 -0.06881 0)
(-1.78277 -0.0687437 0)
(-1.78555 -0.068692 0)
(-1.78976 -0.0683542 0)
(-1.79551 -0.0670856 0)
(-1.80284 -0.0636901 0)
(-1.81162 -0.0562357 0)
(-1.82129 -0.0419098 0)
(-1.83269 -0.0180212 0)
(-1.84514 0.0180657 0)
(-1.86135 0.0738228 0)
(-1.89527 0.16781 0)
(-1.95545 0.346411 0)
(-2.04299 0.723507 0)
(-1.96913 0.0027761 0)
(-1.97599 0.00126076 0)
(-1.95974 0.000774961 0)
(-1.97536 0.000562649 0)
(-1.97191 0.000420432 0)
(-1.96593 0.000656491 0)
(-1.9752 0.000387733 0)
(-1.96921 0.000476547 0)
(-1.96538 0.000997205 0)
(-1.97914 0.000707021 0)
(-1.97293 0.000482156 0)
(-1.96713 0.000702913 0)
(-1.97035 0.000158202 0)
(-1.9665 -0.00040632 0)
(-1.97594 -0.000614797 0)
(-1.96629 -0.000407918 0)
(-1.97801 -0.000470438 0)
(-1.97049 -0.000726959 0)
(-1.97486 -2.01563e-05 0)
(-1.97954 -0.000100224 0)
(-1.94498 -0.000327122 0)
(-1.98325 9.30331e-05 0)
(-1.96958 0.000653365 0)
(-1.97179 0.000808248 0)
(-1.97048 0.000352054 0)
(-1.97108 0.000255953 0)
(-1.96978 0.000339865 0)
(-1.9749 0.000618174 0)
(-1.97826 0.000770669 0)
(-1.96978 0.000247576 0)
(-1.96507 -0.000219224 0)
(-1.9662 -0.000676189 0)
(-1.98294 -0.000251865 0)
(-1.96892 -0.000492891 0)
(-1.98061 -0.0007628 0)
(-1.96328 -0.000198681 0)
(-1.96836 -0.000349683 0)
(-1.96506 -0.00065661 0)
(-1.97958 -0.000294817 0)
(-1.97188 0.000111249 0)
(-1.9716 -0.000316596 0)
(-1.9706 -0.000614632 0)
(-1.97325 0.000327999 0)
(-1.97869 -8.24144e-05 0)
(-1.95018 -0.000680911 0)
(-1.98379 0.000103262 0)
(-1.95562 0.000194192 0)
(-1.97817 -1.50842e-05 0)
(-1.97236 5.53322e-05 0)
(-1.96795 0.000118546 0)
(-1.9746 -0.000371787 0)
(-1.96561 -0.000954973 0)
(-1.97405 -0.00147831 0)
(-1.96724 -0.00220862 0)
(-1.97408 -0.0034224 0)
(-1.96862 -0.00453635 0)
(-1.97263 -0.00540506 0)
(-1.97225 -0.00693883 0)
(-1.96908 -0.0088786 0)
(-1.97642 -0.0111258 0)
(-1.97318 -0.0134724 0)
(-1.97552 -0.0160316 0)
(-1.97551 -0.018968 0)
(-1.9761 -0.0222531 0)
(-1.97661 -0.0258772 0)
(-1.97712 -0.029799 0)
(-1.97765 -0.0339507 0)
(-1.97824 -0.0382535 0)
(-1.97894 -0.0426191 0)
(-1.9798 -0.0469453 0)
(-1.98089 -0.0511175 0)
(-1.98224 -0.0550162 0)
(-1.98397 -0.0585317 0)
(-1.9863 -0.0615912 0)
(-1.98926 -0.064154 0)
(-1.99309 -0.0661973 0)
(-1.99785 -0.0677216 0)
(-2.0036 -0.0687473 0)
(-2.01041 -0.0693097 0)
(-2.01829 -0.0694571 0)
(-2.02722 -0.06925 0)
(-2.03717 -0.0687611 0)
(-2.04811 -0.0680696 0)
(-2.05996 -0.0672586 0)
(-2.07269 -0.066416 0)
(-2.08622 -0.0656243 0)
(-2.1005 -0.0649458 0)
(-2.11548 -0.0643875 0)
(-2.13106 -0.0638425 0)
(-2.14721 -0.0630062 0)
(-2.16378 -0.0612471 0)
(-2.18046 -0.0574513 0)
(-2.19663 -0.0499099 0)
(-2.21104 -0.0361087 0)
(-2.22408 -0.0133381 0)
(-2.23182 0.0222017 0)
(-2.23514 0.0798572 0)
(-2.23913 0.178637 0)
(-2.23408 0.360513 0)
(-2.21111 0.688001 0)
(-1.96821 0.00283789 0)
(-1.97465 0.000940133 0)
(-1.96834 0.000827462 0)
(-1.96731 0.000618298 0)
(-1.97186 0.000660496 0)
(-1.97287 0.000475162 0)
(-1.97073 0.000444481 0)
(-1.96553 0.000929685 0)
(-1.97509 0.00104413 0)
(-1.9692 0.000541073 0)
(-1.97034 0.000672841 0)
(-1.97205 0.000743524 0)
(-1.97009 8.3401e-05 0)
(-1.96623 -0.000159855 0)
(-1.97671 -0.000497943 0)
(-1.97018 -0.000785719 0)
(-1.97062 -0.000652818 0)
(-1.97111 -0.000495401 0)
(-1.97584 -0.000615979 0)
(-1.98495 -0.000271092 0)
(-1.93893 0.00031231 0)
(-1.97829 0.000133559 0)
(-1.97765 0.000517477 0)
(-1.97368 0.000844536 0)
(-1.96629 0.000561466 0)
(-1.96989 0.00045899 0)
(-1.97233 0.000474415 0)
(-1.97744 0.000567645 0)
(-1.98168 0.000711072 0)
(-1.95769 0.000201776 0)
(-1.96383 0.00015052 0)
(-1.97391 -0.000456102 0)
(-1.98654 -0.000489509 0)
(-1.97193 -0.000742896 0)
(-1.96518 -0.000970656 0)
(-1.97596 -0.000376815 0)
(-1.95645 -0.000233657 0)
(-1.97522 -0.000497301 0)
(-1.97846 -0.000376686 0)
(-1.9724 -0.000199959 0)
(-1.96882 -0.000243048 0)
(-1.97204 -0.0004666 0)
(-1.97606 -0.00033973 0)
(-1.97863 -0.000228579 0)
(-1.94572 -0.000396363 0)
(-1.9783 5.41113e-05 0)
(-1.97339 5.4065e-05 0)
(-1.95823 -1.58498e-05 0)
(-1.98029 0.000346035 0)
(-1.97252 0.000384506 0)
(-1.97466 -9.21384e-05 0)
(-1.96345 -0.00103894 0)
(-1.97938 -0.00148516 0)
(-1.96584 -0.00201731 0)
(-1.97695 -0.00336504 0)
(-1.96945 -0.00411749 0)
(-1.98035 -0.00496322 0)
(-1.97397 -0.00634229 0)
(-1.98234 -0.00792319 0)
(-1.97844 -0.0101613 0)
(-1.98449 -0.0124421 0)
(-1.98997 -0.0149452 0)
(-1.99248 -0.0177704 0)
(-1.99726 -0.0209162 0)
(-2.00235 -0.0243822 0)
(-2.00815 -0.0281229 0)
(-2.01471 -0.0320686 0)
(-2.0221 -0.0361362 0)
(-2.03038 -0.0402455 0)
(-2.03958 -0.0443038 0)
(-2.04963 -0.0481797 0)
(-2.06062 -0.0517304 0)
(-2.07269 -0.0548583 0)
(-2.08598 -0.0574976 0)
(-2.10029 -0.0595962 0)
(-2.11573 -0.0611413 0)
(-2.13225 -0.0621545 0)
(-2.14977 -0.0626732 0)
(-2.16824 -0.0627445 0)
(-2.18758 -0.062425 0)
(-2.20771 -0.0617818 0)
(-2.22849 -0.060893 0)
(-2.24982 -0.0598411 0)
(-2.27158 -0.0587102 0)
(-2.29368 -0.0575867 0)
(-2.31603 -0.0565517 0)
(-2.33855 -0.0556657 0)
(-2.36113 -0.0549341 0)
(-2.38369 -0.0542552 0)
(-2.4061 -0.0533463 0)
(-2.42809 -0.0516368 0)
(-2.44914 -0.0481501 0)
(-2.46831 -0.0414459 0)
(-2.48383 -0.0294841 0)
(-2.49571 -0.00962503 0)
(-2.49767 0.02264 0)
(-2.48836 0.0767589 0)
(-2.46475 0.170515 0)
(-2.4056 0.336589 0)
(-2.3106 0.598417 0)
(-1.97525 0.00265459 0)
(-1.96347 0.000601579 0)
(-1.9785 0.000715682 0)
(-1.96569 0.000752208 0)
(-1.9743 0.000731951 0)
(-1.96307 0.000199935 0)
(-1.96992 0.000651556 0)
(-1.97014 0.00114629 0)
(-1.97977 0.000773307 0)
(-1.95793 0.000686796 0)
(-1.97076 0.00105972 0)
(-1.97146 0.000670117 0)
(-1.97312 3.43754e-05 0)
(-1.97032 -0.000175198 0)
(-1.97404 -0.000338363 0)
(-1.9714 -0.00103054 0)
(-1.96273 -0.000743045 0)
(-1.97407 -0.000135371 0)
(-1.98072 -0.00115116 0)
(-1.96516 -0.000289563 0)
(-1.96792 0.000673943 0)
(-1.96236 0.000139058 0)
(-1.97993 0.000595301 0)
(-1.97 0.000672706 0)
(-1.96941 0.000755812 0)
(-1.9688 0.000781541 0)
(-1.97696 0.000624843 0)
(-1.97144 0.000604273 0)
(-1.97965 0.000264991 0)
(-1.95399 0.000299827 0)
(-1.97074 0.00073958 0)
(-1.97781 -0.000366507 0)
(-1.97753 -0.00105684 0)
(-1.98657 -0.000787545 0)
(-1.93806 -0.000784546 0)
(-1.98995 -0.000915184 0)
(-1.95996 -6.75401e-05 0)
(-1.97477 -0.000235053 0)
(-1.97583 -0.000685374 0)
(-1.97069 -0.000380677 0)
(-1.96933 -0.00011333 0)
(-1.97189 -0.000404757 0)
(-1.97221 -0.00106184 0)
(-1.97685 -0.000276699 0)
(-1.95338 0.000294512 0)
(-1.97605 -0.000346676 0)
(-1.98826 -0.000172806 0)
(-1.93435 0.000533894 0)
(-1.99172 0.000635345 0)
(-1.97072 0.000432019 0)
(-1.97409 0.000260171 0)
(-1.97424 -0.000868024 0)
(-1.96636 -0.00146795 0)
(-1.97883 -0.00170967 0)
(-1.97537 -0.00275275 0)
(-1.97156 -0.00331121 0)
(-1.9826 -0.00413558 0)
(-1.9782 -0.00519426 0)
(-1.99215 -0.00648013 0)
(-1.97686 -0.00832227 0)
(-1.99507 -0.0103071 0)
(-1.99929 -0.012536 0)
(-2.00359 -0.0149983 0)
(-2.01171 -0.017727 0)
(-2.0201 -0.0207307 0)
(-2.02989 -0.0239609 0)
(-2.04107 -0.0273533 0)
(-2.0537 -0.0308314 0)
(-2.06786 -0.0343449 0)
(-2.08349 -0.0378115 0)
(-2.10047 -0.0410698 0)
(-2.11912 -0.0439866 0)
(-2.13931 -0.0464883 0)
(-2.16089 -0.0485169 0)
(-2.18369 -0.0500348 0)
(-2.2076 -0.0510422 0)
(-2.23246 -0.0515706 0)
(-2.25812 -0.0516623 0)
(-2.28444 -0.051365 0)
(-2.31129 -0.0507356 0)
(-2.33852 -0.0498434 0)
(-2.36596 -0.0487665 0)
(-2.39348 -0.0475854 0)
(-2.42097 -0.0463779 0)
(-2.44835 -0.0452219 0)
(-2.47555 -0.0441935 0)
(-2.5025 -0.0433506 0)
(-2.5291 -0.0426997 0)
(-2.55527 -0.0421556 0)
(-2.58084 -0.0414828 0)
(-2.60544 -0.0402049 0)
(-2.62841 -0.0375233 0)
(-2.64858 -0.0322999 0)
(-2.66388 -0.0230535 0)
(-2.6736 -0.00732353 0)
(-2.67039 0.0193906 0)
(-2.64984 0.0654341 0)
(-2.60282 0.145843 0)
(-2.50265 0.283173 0)
(-2.36353 0.477395 0)
(-1.98342 0.00116944 0)
(-1.95067 0.000564438 0)
(-1.98213 0.000470143 0)
(-1.97367 0.00047757 0)
(-1.97876 0.00058915 0)
(-1.93575 0.000324195 0)
(-1.98071 0.000794139 0)
(-1.97664 0.00121178 0)
(-1.9737 0.000534857 0)
(-1.96264 0.000858276 0)
(-1.97327 0.00139256 0)
(-1.96617 0.000716673 0)
(-1.97233 0.00019106 0)
(-1.97192 -0.000423079 0)
(-1.97161 -0.000407278 0)
(-1.97283 -0.000785992 0)
(-1.96539 -0.000669808 0)
(-1.97381 -0.000364774 0)
(-1.98543 -0.00129092 0)
(-1.94406 -0.000107005 0)
(-1.98593 0.000547959 0)
(-1.95845 -5.45071e-05 0)
(-1.97953 0.000922795 0)
(-1.96607 0.000778359 0)
(-1.96983 0.000730483 0)
(-1.97209 0.000980752 0)
(-1.97847 0.000898807 0)
(-1.96402 0.000674312 0)
(-1.9862 -0.000217318 0)
(-1.93884 0.000427956 0)
(-1.99248 0.000845649 0)
(-1.96014 -0.000329363 0)
(-1.97286 -0.0011719 0)
(-1.98416 -0.000694776 0)
(-1.95519 -0.000634525 0)
(-1.98044 -0.00119694 0)
(-1.96869 -0.000234133 0)
(-1.9698 -0.000114741 0)
(-1.97289 -0.000656038 0)
(-1.9739 -0.000695814 0)
(-1.97216 -0.000182422 0)
(-1.95842 -0.000458915 0)
(-1.97616 -0.00123001 0)
(-1.97335 -0.000133112 0)
(-1.96334 0.000680982 0)
(-1.97672 -0.000496496 0)
(-1.97431 -0.000113536 0)
(-1.95805 0.00102392 0)
(-1.98459 0.000830043 0)
(-1.96456 0.000336554 0)
(-1.97729 0.000129408 0)
(-1.98164 -0.000303999 0)
(-1.95068 -0.000830291 0)
(-1.98806 -0.00128723 0)
(-1.97707 -0.00184462 0)
(-1.97733 -0.00229083 0)
(-1.9816 -0.00304347 0)
(-1.98395 -0.00375156 0)
(-1.99161 -0.00477096 0)
(-1.98172 -0.00604878 0)
(-2.00212 -0.00754665 0)
(-2.00388 -0.00927483 0)
(-2.01086 -0.0111684 0)
(-2.02105 -0.0132531 0)
(-2.03153 -0.0155421 0)
(-2.04404 -0.0179953 0)
(-2.05838 -0.0205582 0)
(-2.07465 -0.0231692 0)
(-2.09294 -0.025822 0)
(-2.11296 -0.0284258 0)
(-2.13509 -0.0308177 0)
(-2.15926 -0.0329094 0)
(-2.18503 -0.0346509 0)
(-2.21222 -0.0360005 0)
(-2.24067 -0.0369373 0)
(-2.27011 -0.0374664 0)
(-2.30031 -0.037614 0)
(-2.33105 -0.0374158 0)
(-2.36214 -0.0369135 0)
(-2.39341 -0.0361593 0)
(-2.42469 -0.0352163 0)
(-2.45581 -0.0341535 0)
(-2.48667 -0.0330399 0)
(-2.5172 -0.0319422 0)
(-2.54735 -0.0309287 0)
(-2.57706 -0.0300703 0)
(-2.60629 -0.0294245 0)
(-2.63498 -0.0290066 0)
(-2.66301 -0.0287613 0)
(-2.69016 -0.0285203 0)
(-2.71599 -0.0279297 0)
(-2.7397 -0.0263939 0)
(-2.76 -0.0230858 0)
(-2.77469 -0.0170798 0)
(-2.782 -0.00634331 0)
(-2.77492 0.0129502 0)
(-2.74529 0.0472769 0)
(-2.68026 0.107843 0)
(-2.55146 0.208677 0)
(-2.38751 0.339638 0)
(-1.9738 6.30587e-05 0)
(-1.95968 0.000606472 0)
(-1.97606 0.000287579 0)
(-1.97128 7.04687e-05 0)
(-1.98019 0.000516504 0)
(-1.94189 0.000641803 0)
(-1.97905 0.00089779 0)
(-1.97609 0.00126648 0)
(-1.96553 0.000484753 0)
(-1.97215 0.000819749 0)
(-1.96977 0.00155101 0)
(-1.97066 0.000793472 0)
(-1.9671 0.000254165 0)
(-1.97107 -0.000362528 0)
(-1.97065 -0.000313789 0)
(-1.97263 -0.000598372 0)
(-1.96989 -0.000590368 0)
(-1.97812 -0.000821329 0)
(-1.96348 -0.00129721 0)
(-1.96833 -0.000262445 0)
(-1.97865 0.000587582 0)
(-1.95745 8.67676e-05 0)
(-1.97088 0.000687538 0)
(-1.97342 0.00116226 0)
(-1.96669 0.000770286 0)
(-1.97448 0.000765583 0)
(-1.97478 0.00121313 0)
(-1.9626 0.000700424 0)
(-1.98294 -0.000194076 0)
(-1.9513 0.000259873 0)
(-1.99874 0.00059126 0)
(-1.93207 -9.25224e-07 0)
(-1.98677 -0.000910045 0)
(-1.97593 -0.000772909 0)
(-1.97084 -0.000675596 0)
(-1.96904 -0.000924231 0)
(-1.97335 -0.000615049 0)
(-1.96944 -0.000245034 0)
(-1.97207 -0.000475909 0)
(-1.97416 -0.00111799 0)
(-1.98088 -0.000531987 0)
(-1.94054 -0.000344383 0)
(-1.97416 -0.0008545 0)
(-1.97537 -1.58116e-05 0)
(-1.9705 0.000549428 0)
(-1.97743 -1.58921e-05 0)
(-1.96195 0.000312371 0)
(-1.97814 0.000851843 0)
(-1.97191 0.000912844 0)
(-1.96892 0.000577741 0)
(-1.97629 2.3239e-05 0)
(-1.97598 5.21168e-05 0)
(-1.96554 2.46057e-05 0)
(-1.9846 -0.00051709 0)
(-1.97036 -0.000874896 0)
(-1.98287 -0.0011033 0)
(-1.98066 -0.00173794 0)
(-1.9893 -0.00219377 0)
(-1.987 -0.00277211 0)
(-1.98849 -0.00349904 0)
(-2.00487 -0.00444187 0)
(-2.00615 -0.00552309 0)
(-2.01521 -0.0066941 0)
(-2.02629 -0.00797289 0)
(-2.03803 -0.00936803 0)
(-2.05221 -0.0108538 0)
(-2.06849 -0.0123918 0)
(-2.08702 -0.0139429 0)
(-2.10786 -0.0155278 0)
(-2.13057 -0.0170604 0)
(-2.15626 -0.0184295 0)
(-2.18375 -0.0195939 0)
(-2.2129 -0.0205247 0)
(-2.24357 -0.0211962 0)
(-2.27542 -0.0215954 0)
(-2.30815 -0.0217257 0)
(-2.34144 -0.0216035 0)
(-2.37504 -0.0212521 0)
(-2.40872 -0.0207 0)
(-2.44229 -0.0199844 0)
(-2.47559 -0.0191511 0)
(-2.50847 -0.0182514 0)
(-2.54086 -0.0173386 0)
(-2.57273 -0.0164677 0)
(-2.60406 -0.0156989 0)
(-2.63482 -0.0150977 0)
(-2.66499 -0.0147238 0)
(-2.69453 -0.0146114 0)
(-2.72333 -0.0147492 0)
(-2.75113 -0.0150518 0)
(-2.77742 -0.0153079 0)
(-2.80133 -0.0151334 0)
(-2.82149 -0.0140143 0)
(-2.83576 -0.0114823 0)
(-2.84116 -0.00628934 0)
(-2.83201 0.00419317 0)
(-2.79655 0.0241675 0)
(-2.71989 0.0603531 0)
(-2.57376 0.120372 0)
(-2.39774 0.194121 0)
(-1.96734 0.000660165 0)
(-1.96376 0.000532425 0)
(-1.97721 0.000141849 0)
(-1.96897 0.000149447 0)
(-1.97644 0.000441476 0)
(-1.96142 0.000705038 0)
(-1.96963 0.00121471 0)
(-1.97624 0.000972835 0)
(-1.96174 0.000625279 0)
(-1.97711 0.00100185 0)
(-1.96559 0.00118995 0)
(-1.97295 0.000866489 0)
(-1.97023 0.000276208 0)
(-1.96593 -3.49848e-05 0)
(-1.97229 0.000132128 0)
(-1.97187 -0.000705758 0)
(-1.97245 -0.00103292 0)
(-1.98422 -0.00102087 0)
(-1.93916 -0.000885772 0)
(-1.98474 -0.00048394 0)
(-1.97987 0.000515578 0)
(-1.96519 0.00041665 4.89769e-42)
(-1.95621 0.000363603 0)
(-1.97914 0.00119769 0)
(-1.9678 0.000941901 0)
(-1.97404 0.00059999 0)
(-1.97309 0.00121568 0)
(-1.96959 0.000713728 0)
(-1.97535 0.000196263 0)
(-1.95334 0.000164437 0)
(-1.98802 0.000370825 0)
(-1.95749 0.000185159 0)
(-1.98172 -0.00059697 0)
(-1.95854 -0.00101157 0)
(-1.97512 -0.000672024 0)
(-1.97336 -0.000547326 0)
(-1.97541 -0.000744605 0)
(-1.96739 -0.0007 0)
(-1.97188 -0.000714216 0)
(-1.97192 -0.00104303 0)
(-1.98758 -0.000910175 0)
(-1.9417 -0.000222447 0)
(-1.95704 -0.00034162 0)
(-1.98355 -5.48704e-05 0)
(-1.97569 0.000202463 0)
(-1.97812 0.000438217 0)
(-1.95434 0.00108515 0)
(-1.97949 0.000690363 0)
(-1.97284 0.000745578 0)
(-1.97171 0.00101289 0)
(-1.97287 0.000371914 0)
(-1.97655 0.000340269 0)
(-1.96802 0.000443218 0)
(-1.98737 0.000391369 0)
(-1.9637 0.000187998 0)
(-1.98345 2.97766e-05 0)
(-1.9824 -0.0001657 0)
(-1.98795 -0.000467462 0)
(-1.98788 -0.000597261 0)
(-1.99169 -0.000842255 0)
(-2.00489 -0.00119804 0)
(-2.0072 -0.00152501 0)
(-2.01696 -0.00187365 0)
(-2.02838 -0.00224752 0)
(-2.04076 -0.00264308 0)
(-2.05574 -0.00304699 0)
(-2.07297 -0.00344381 0)
(-2.09262 -0.00382095 0)
(-2.11471 -0.0041922 0)
(-2.13885 -0.00452829 0)
(-2.16635 -0.00479631 0)
(-2.19542 -0.00498731 0)
(-2.22629 -0.00509173 0)
(-2.25866 -0.00510008 0)
(-2.29215 -0.00500594 0)
(-2.32642 -0.00480739 0)
(-2.36111 -0.00450627 0)
(-2.39595 -0.0041075 0)
(-2.43071 -0.00361951 0)
(-2.46519 -0.00305619 0)
(-2.49922 -0.00243896 0)
(-2.5327 -0.00179645 0)
(-2.56558 -0.00116432 -1.36865e-41)
(-2.59783 -0.000585553 0)
(-2.62948 -0.000112566 0)
(-2.66051 0.000193227 0)
(-2.69093 0.000266874 0)
(-2.7207 4.97929e-05 5.85312e-43)
(-2.74973 -0.000500349 0)
(-2.77775 -0.0013929 0)
(-2.80419 -0.00257398 0)
(-2.82817 -0.00389381 0)
(-2.84827 -0.00509824 0)
(-2.86227 -0.0060777 -3.57215e-41)
(-2.86696 -0.00662261 0)
(-2.85678 -0.00566034 0)
(-2.81957 -0.0015731 -1.84917e-41)
(-2.73822 0.00762482 0)
(-2.58492 0.0243117 0)
(-2.40462 0.0451709 0)
(-1.96383 0.00130749 0)
(-1.97136 0.000512209 0)
(-1.97856 -7.19848e-05 0)
(-1.96724 0.000351515 0)
(-1.97313 0.000331219 0)
(-1.96988 0.000592864 0)
(-1.97033 0.00135304 0)
(-1.97763 0.000684715 0)
(-1.95168 0.000899017 0)
(-1.9806 0.00122952 0)
(-1.96941 0.000677986 0)
(-1.97054 0.000725039 0)
(-1.97468 0.000486074 0)
(-1.96149 0.000534467 0)
(-1.97434 0.000155654 0)
(-1.97119 -0.000880657 0)
(-1.96947 -0.00138549 0)
(-1.97771 -0.00136909 0)
(-1.95885 -0.0003081 0)
(-1.97256 -9.34661e-05 0)
(-1.98069 0.000197528 0)
(-1.96208 0.000492378 5.78788e-42)
(-1.96329 0.000563397 0)
(-1.97783 0.000589114 0)
(-1.96986 0.000990506 0)
(-1.97228 0.0011149 0)
(-1.97192 0.000988571 0)
(-1.97258 0.0004123 0)
(-1.97632 0.000531245 0)
(-1.95274 0.000558484 0)
(-1.98168 -3.70495e-05 0)
(-1.98 -0.000101264 0)
(-1.97114 -0.000175477 0)
(-1.94056 -0.000914077 0)
(-1.98231 -0.000806113 0)
(-1.97884 -0.000323211 0)
(-1.97311 -0.000681083 0)
(-1.97178 -0.00118554 0)
(-1.96514 -0.00103941 0)
(-1.97344 -0.000890363 0)
(-1.97686 -0.000939181 0)
(-1.95934 -0.000260676 0)
(-1.95753 -0.000151882 0)
(-1.98104 -0.000218196 0)
(-1.97532 -4.68886e-05 0)
(-1.97979 0.000819997 0)
(-1.94795 0.00177018 0)
(-1.98071 0.000723396 0)
(-1.96684 0.000641969 0)
(-1.97924 0.00132173 0)
(-1.97019 0.000685641 0)
(-1.97891 0.000903839 0)
(-1.95645 0.000874734 0)
(-1.98929 0.00101159 0)
(-1.97514 0.00129234 0)
(-1.97489 0.00121754 0)
(-1.98688 0.00138514 0)
(-1.98036 0.00136589 0)
(-1.99288 0.00161609 0)
(-1.99066 0.00185369 0)
(-2.00316 0.0020985 0)
(-2.00722 0.00253871 0)
(-2.01603 0.0030368 0)
(-2.02765 0.0036007 0)
(-2.03998 0.00423919 0)
(-2.05483 0.00495105 0)
(-2.07193 0.0057274 0)
(-2.0914 0.00655286 0)
(-2.11328 0.00743816 0)
(-2.13716 0.00832977 0)
(-2.16432 0.00917647 0)
(-2.19307 0.00996568 0)
(-2.22358 0.0106858 0)
(-2.25557 0.0113291 0)
(-2.28868 0.0118963 0)
(-2.32257 0.012396 0)
(-2.35691 0.0128428 0)
(-2.39141 0.0132525 0)
(-2.42585 0.0136393 0)
(-2.46005 0.0140152 0)
(-2.49384 0.014386 0)
(-2.5271 0.0147469 0)
(-2.5598 0.0150805 1.77271e-40)
(-2.59192 0.0153565 0)
(-2.62347 0.0155307 0)
(-2.65446 0.015545 0)
(-2.68489 0.0153272 0)
(-2.71473 0.0147913 1.7387e-40)
(-2.74387 0.013837 0)
(-2.77202 0.0123526 0)
(-2.79862 0.0102251 0)
(-2.82273 0.00734682 0)
(-2.84284 0.00373461 0)
(-2.85707 -0.000809049 -4.75516e-42)
(-2.86148 -0.00706502 0)
(-2.85061 -0.0156964 0)
(-2.81397 -0.0278914 -3.27862e-40)
(-2.73323 -0.0464284 0)
(-2.58086 -0.0739811 0)
(-2.40114 -0.104977 0)
(-1.96361 0.00185772 0)
(-1.97513 0.000527725 0)
(-1.97497 -0.000166106 0)
(-1.96836 -3.76119e-05 0)
(-1.97197 0.000450561 0)
(-1.97201 0.000904601 0)
(-1.97486 0.000728144 0)
(-1.97536 0.000585617 0)
(-1.9555 0.00145458 0)
(-1.97386 0.00116884 0)
(-1.97409 0.000347618 0)
(-1.9722 0.000396723 0)
(-1.96956 0.000740522 0)
(-1.96932 0.000990753 0)
(-1.96962 -7.18754e-06 0)
(-1.97193 -0.000987825 0)
(-1.97054 -0.00148573 0)
(-1.96999 -0.00142026 0)
(-1.97266 -0.000240546 0)
(-1.96739 0.000160742 0)
(-1.97435 0.000205743 0)
(-1.96679 0.000622301 0)
(-1.96931 0.000706622 0)
(-1.97311 0.000113286 0)
(-1.97012 0.000950282 0)
(-1.97172 0.00145341 0)
(-1.9691 0.000958639 0)
(-1.97215 0.000150482 0)
(-1.97211 0.000609201 0)
(-1.96668 0.000688122 0)
(-1.97362 -7.36982e-05 0)
(-1.97069 -0.000227481 0)
(-1.97628 -0.000398621 0)
(-1.95365 -0.00054616 0)
(-1.97299 -0.000762253 0)
(-1.97786 -0.000429362 0)
(-1.97623 -0.000760898 0)
(-1.9586 -0.00132417 0)
(-1.96828 -0.000964396 0)
(-1.97631 -0.000767678 0)
(-1.97399 -0.000912723 0)
(-1.9697 -0.000574252 0)
(-1.95738 -0.000485706 0)
(-1.97683 -0.000323627 0)
(-1.97295 0.000413561 0)
(-1.97448 0.00131092 0)
(-1.96533 0.00163459 0)
(-1.98035 0.000781993 0)
(-1.94487 0.00102035 0)
(-1.98814 0.0013185 0)
(-1.97052 0.000993279 0)
(-1.97442 0.00136902 0)
(-1.96862 0.00145177 0)
(-1.97889 0.00174281 0)
(-1.98153 0.00227625 0)
(-1.96466 0.00240297 0)
(-1.99298 0.00279951 0)
(-1.97343 0.00318477 0)
(-1.99584 0.00368666 0)
(-1.9884 0.00446981 0)
(-1.99928 0.00534284 0)
(-2.00631 0.00650065 0)
(-2.01297 0.00780828 0)
(-2.02425 0.00926607 0)
(-2.03593 0.0108899 0)
(-2.04984 0.0126646 0)
(-2.06583 0.0145585 0)
(-2.08402 0.016529 0)
(-2.10443 0.0185917 0)
(-2.12665 0.020647 0)
(-2.15167 0.0225673 0)
(-2.17852 0.0243063 0)
(-2.20696 0.0258343 0)
(-2.23686 0.0271287 0)
(-2.26792 0.0281837 0)
(-2.29983 0.0290127 0)
(-2.33231 0.029644 0)
(-2.3651 0.0301109 0)
(-2.398 0.0304469 0)
(-2.43082 0.030687 0)
(-2.4634 0.0308612 0)
(-2.49562 0.0309876 0)