/*--------------------------------*- C++ -*----------------------------------*\
| =========                 |                                                 |
| \\      /  F ield         | OpenFOAM: The Open Source CFD Toolbox           |
|  \\    /   O peration     | Version:  2.1.0                                 |
|   \\  /    A nd           | Web:      www.OpenFOAM.org                      |
|    \\/     M anipulation  |                                                 |
\*---------------------------------------------------------------------------*/
FoamFile
{
    version     2.0;
    format      ascii;
    class       volScalarField;
    location    "0.32";
    object      C0;
}
// * * * * * * * * * * * * * * * * * * * * * * * * * * * * * * * * * * * * * //

dimensions      [0 0 0 0 0 0 0];

internalField   nonuniform List<scalar> 
6400
(
0.000274404
0.000279082
0.000284974
0.000291163
0.000297414
0.000303668
0.000309911
0.000316135
0.000322339
0.000328518
0.000334672
0.000340799
0.000346895
0.00035296
0.000358992
0.000364991
0.000370954
0.000376881
0.000382772
0.000388626
0.000394443
0.000400224
0.000405967
0.000411675
0.000417347
0.000422985
0.00042859
0.000434162
0.000439703
0.000445216
0.000450701
0.000456162
0.000461599
0.000467016
0.000472415
0.000477798
0.00048317
0.000488532
0.000493888
0.000499241
0.000504596
0.000509955
0.000515323
0.000520703
0.000526101
0.00053152
0.000536964
0.000542439
0.00054795
0.000553501
0.000559098
0.000564746
0.000570451
0.000576217
0.000582052
0.000587962
0.000593951
0.000600027
0.000606196
0.000612465
0.00061884
0.000625329
0.000631938
0.000638675
0.000645547
0.000652561
0.000659726
0.000667048
0.000674537
0.000682199
0.000690044
0.000698079
0.000706313
0.000714753
0.000723408
0.000732287
0.000741396
0.000750745
0.000760338
0.000770184
0.000780288
0.000790653
0.000801284
0.000812181
0.000823342
0.000834763
0.000846435
0.000858346
0.000870476
0.000882799
0.000895281
0.000907877
0.00092052
0.000933099
0.000945428
0.0009573
0.000968557
0.000978858
0.000987647
0.000994191
0.000276274
0.00028103
0.000286942
0.000293123
0.000299358
0.000305591
0.00031181
0.000318008
0.000324183
0.000330333
0.000336454
0.000342546
0.000348606
0.000354633
0.000360625
0.000366581
0.0003725
0.000378381
0.000384225
0.00039003
0.000395796
0.000401525
0.000407215
0.000412867
0.000418483
0.000424063
0.000429608
0.00043512
0.0004406
0.000446051
0.000451472
0.000456868
0.00046224
0.000467591
0.000472923
0.000478239
0.000483541
0.000488834
0.000494121
0.000499404
0.000504688
0.000509977
0.000515273
0.000520582
0.000525908
0.000531255
0.000536628
0.000542031
0.00054747
0.00055295
0.000558475
0.000564052
0.000569686
0.000575383
0.000581149
0.000586989
0.000592911
0.000598919
0.000605022
0.000611226
0.000617537
0.000623963
0.000630511
0.000637188
0.000644003
0.000650962
0.000658074
0.000665346
0.000672788
0.000680407
0.000688213
0.000696213
0.000704416
0.000712831
0.000721467
0.000730334
0.000739438
0.00074879
0.000758396
0.000768265
0.000778404
0.000788819
0.000799514
0.000810494
0.000821758
0.000833305
0.000845129
0.000857218
0.000869553
0.000882105
0.000894831
0.000907664
0.000920511
0.00093323
0.000945634
0.000957479
0.000968568
0.000978513
0.000986753
0.000992664
0.000279296
0.00028412
0.00029004
0.000296199
0.000302398
0.00030859
0.000314763
0.000320911
0.000327031
0.000333122
0.000339182
0.000345207
0.000351197
0.000357151
0.000363066
0.000368941
0.000374776
0.00038057
0.000386323
0.000392034
0.000397703
0.000403331
0.000408918
0.000414464
0.000419971
0.000425439
0.00043087
0.000436265
0.000441626
0.000446954
0.000452251
0.000457521
0.000462764
0.000467983
0.000473182
0.000478363
0.00048353
0.000488684
0.000493831
0.000498972
0.000504113
0.000509257
0.000514407
0.000519569
0.000524747
0.000529944
0.000535167
0.000540419
0.000545706
0.000551032
0.000556405
0.000561827
0.000567307
0.000572849
0.000578459
0.000584144
0.00058991
0.000595763
0.000601711
0.000607759
0.000613916
0.000620188
0.000626583
0.000633109
0.000639774
0.000646585
0.000653551
0.000660681
0.000667982
0.000675465
0.000683138
0.000691011
0.000699092
0.000707393
0.000715922
0.000724689
0.000733705
0.00074298
0.000752523
0.000762345
0.000772455
0.000782864
0.000793578
0.000804606
0.000815954
0.000827624
0.000839615
0.00085192
0.000864523
0.000877392
0.000890475
0.00090369
0.000916911
0.000929957
0.000942577
0.000954496
0.000965507
0.000975224
0.000983158
0.000988787
0.000282988
0.000287859
0.000293768
0.000299885
0.000306028
0.000312157
0.000318259
0.000324332
0.000330372
0.000336376
0.000342344
0.000348272
0.00035416
0.000360005
0.000365807
0.000371565
0.000377277
0.000382943
0.000388563
0.000394136
0.000399664
0.000405145
0.00041058
0.000415971
0.000421318
0.000426622
0.000431884
0.000437106
0.00044229
0.000447438
0.000452551
0.000457632
0.000462684
0.000467708
0.000472709
0.000477687
0.000482648
0.000487594
0.000492528
0.000497454
0.000502377
0.000507299
0.000512226
0.00051716
0.000522107
0.000527072
0.000532059
0.000537072
0.000542118
0.000547201
0.000552327
0.0005575
0.000562728
0.000568016
0.000573369
0.000578794
0.000584298
0.000589887
0.000595568
0.000601347
0.000607233
0.000613231
0.000619351
0.0006256
0.000631985
0.000638516
0.0006452
0.000652046
0.000659064
0.000666262
0.00067365
0.000681238
0.000689036
0.000697055
0.000705305
0.000713797
0.000722542
0.000731553
0.000740842
0.000750421
0.000760303
0.000770501
0.00078103
0.000791902
0.00080313
0.000814726
0.000826696
0.000839042
0.000851757
0.000864816
0.000878172
0.000891738
0.000905381
0.000918897
0.000932001
0.000944424
0.000955939
0.000966151
0.000974558
0.000980526
0.000286898
0.000291793
0.000297667
0.000303719
0.000309785
0.000315826
0.000321835
0.000327806
0.000333738
0.000339628
0.000345474
0.000351274
0.000357027
0.000362731
0.000368385
0.000373988
0.000379539
0.000385037
0.000390484
0.000395877
0.000401218
0.000406507
0.000411745
0.000416932
0.000422068
0.000427157
0.000432198
0.000437193
0.000442144
0.000447054
0.000451923
0.000456755
0.000461552
0.000466317
0.000471052
0.00047576
0.000480445
0.00048511
0.000489758
0.000494393
0.000499019
0.000503639
0.000508258
0.00051288
0.000517509
0.000522151
0.000526808
0.000531487
0.000536193
0.00054093
0.000545703
0.000550519
0.000555383
0.0005603
0.000565276
0.000570318
0.000575432
0.000580624
0.000585901
0.000591269
0.000596736
0.000602308
0.000607994
0.0006138
0.000619735
0.000625806
0.000632022
0.000638392
0.000644925
0.000651629
0.000658514
0.00066559
0.000672867
0.000680356
0.000688069
0.000696018
0.000704214
0.000712671
0.000721404
0.000730428
0.00073976
0.000749417
0.000759419
0.000769787
0.000780542
0.000791706
0.000803302
0.000815345
0.000827846
0.000840802
0.000854187
0.00086794
0.000881953
0.000896046
0.000909952
0.000923406
0.000936146
0.00094771
0.00095743
0.000964261
0.000290574
0.000295468
0.000301281
0.000307246
0.000313209
0.00031914
0.000325029
0.000330874
0.000336671
0.000342419
0.000348114
0.000353756
0.000359343
0.000364873
0.000370345
0.000375758
0.000381111
0.000386405
0.000391639
0.000396812
0.000401925
0.000406979
0.000411974
0.00041691
0.00042179
0.000426613
0.000431382
0.000436097
0.000440762
0.000445377
0.000449945
0.000454468
0.000458949
0.00046339
0.000467794
0.000472165
0.000476504
0.000480815
0.000485102
0.000489368
0.000493617
0.000497852
0.000502078
0.000506299
0.000510518
0.00051474
0.00051897
0.000523212
0.000527471
0.000531752
0.000536059
0.000540398
0.000544774
0.000549193
0.00055366
0.00055818
0.00056276
0.000567405
0.000572121
0.000576916
0.000581794
0.000586764
0.000591831
0.000597004
0.000602288
0.000607693
0.000613224
0.000618891
0.000624702
0.000630666
0.000636791
0.000643087
0.000649564
0.000656233
0.000663105
0.000670193
0.000677508
0.000685067
0.000692884
0.000700977
0.000709365
0.000718072
0.00072712
0.000736538
0.000746357
0.000756611
0.000767337
0.000778573
0.000790353
0.000802708
0.000815652
0.000829175
0.000843229
0.000857711
0.000872426
0.000887102
0.000901443
0.000914877
0.000926429
0.000934393
0.000293559
0.000298425
0.000304152
0.000310004
0.000315842
0.000321639
0.000327386
0.000333079
0.000338717
0.000344296
0.000349814
0.00035527
0.000360662
0.000365989
0.000371249
0.000376441
0.000381566
0.000386621
0.000391608
0.000396525
0.000401374
0.000406155
0.000410867
0.000415513
0.000420093
0.000424608
0.00042906
0.000433449
0.000437779
0.00044205
0.000446265
0.000450426
0.000454536
0.000458596
0.00046261
0.00046658
0.000470509
0.0004744
0.000478257
0.000482082
0.00048588
0.000489653
0.000493405
0.000497141
0.000500863
0.000504576
0.000508284
0.000511991
0.000515702
0.00051942
0.000523151
0.000526899
0.000530668
0.000534463
0.00053829
0.000542153
0.000546057
0.000550009
0.000554012
0.000558073
0.000562197
0.00056639
0.000570658
0.000575007
0.000579444
0.000583975
0.000588607
0.000593347
0.000598202
0.00060318
0.000608289
0.000613537
0.000618934
0.000624489
0.000630212
0.000636116
0.000642213
0.000648516
0.000655042
0.000661808
0.000668836
0.000676147
0.00068377
0.000691737
0.000700084
0.000708855
0.000718099
0.00072787
0.000738227
0.000749234
0.000760949
0.000773426
0.000786698
0.000800772
0.00081559
0.000830886
0.000846356
0.000861343
0.000874535
0.000883468
0.000295415
0.000300225
0.000305841
0.000311561
0.000317255
0.000322898
0.000328483
0.000334006
0.000339463
0.000344854
0.000350175
0.000355424
0.000360601
0.000365702
0.000370728
0.000375677
0.000380549
0.000385343
0.000390058
0.000394695
0.000399253
0.000403734
0.000408137
0.000412464
0.000416714
0.00042089
0.000424993
0.000429023
0.000432984
0.000436875
0.0004407
0.000444459
0.000448157
0.000451794
0.000455373
0.000458896
0.000462367
0.000465788
0.000469162
0.000472492
0.000475781
0.000479032
0.000482248
0.000485433
0.00048859
0.000491722
0.000494833
0.000497927
0.000501008
0.000504078
0.000507143
0.000510205
0.00051327
0.00051634
0.00051942
0.000522514
0.000525626
0.000528761
0.000531923
0.000535117
0.000538346
0.000541616
0.000544931
0.000548297
0.000551718
0.0005552
0.000558747
0.000562366
0.000566062
0.000569841
0.000573709
0.000577674
0.000581743
0.000585923
0.000590223
0.000594652
0.000599222
0.000603944
0.000608832
0.000613901
0.00061917
0.00062466
0.000630397
0.000636411
0.000642737
0.000649418
0.000656507
0.000664063
0.000672155
0.00068086
0.000690268
0.000700475
0.000711584
0.000723706
0.000736954
0.000751192
0.000766064
0.000780987
0.00079448
0.00080357
0.000295791
0.000300519
0.000306009
0.000311582
0.000317121
0.000322599
0.000328011
0.000333353
0.000338621
0.000343813
0.000348927
0.000353961
0.000358912
0.00036378
0.000368563
0.00037326
0.000377871
0.000382393
0.000386828
0.000391175
0.000395434
0.000399604
0.000403687
0.000407684
0.000411594
0.000415418
0.000419159
0.000422816
0.000426392
0.000429888
0.000433306
0.000436646
0.000439912
0.000443106
0.000446229
0.000449283
0.000452271
0.000455196
0.000458059
0.000460863
0.000463612
0.000466306
0.000468951
0.000471547
0.000474098
0.000476606
0.000479076
0.000481509
0.000483908
0.000486277
0.000488619
0.000490936
0.000493232
0.00049551
0.000497773
0.000500024
0.000502266
0.000504503
0.000506737
0.000508972
0.000511211
0.000513457
0.000515712
0.000517982
0.000520269
0.000522577
0.000524909
0.000527268
0.000529659
0.000532085
0.000534551
0.00053706
0.000539618
0.00054223
0.0005449
0.000547637
0.000550446
0.000553336
0.000556316
0.000559398
0.000562595
0.000565922
0.000569398
0.000573043
0.000576883
0.000580949
0.000585282
0.00058993
0.000594945
0.000600393
0.000606353
0.000612916
0.000620196
0.000628334
0.000637524
0.000648001
0.000659263
0.00067101
0.000682021
0.000689581
0.000294482
0.000299107
0.000304461
0.000309886
0.000315267
0.000320581
0.000325821
0.000330983
0.000336064
0.000341061
0.000345973
0.000350796
0.000355528
0.000360169
0.000364716
0.000369169
0.000373525
0.000377785
0.000381948
0.000386014
0.000389981
0.000393851
0.000397623
0.000401297
0.000404875
0.000408357
0.000411744
0.000415036
0.000418235
0.000421342
0.000424359
0.000427286
0.000430126
0.00043288
0.000435549
0.000438136
0.000440643
0.000443071
0.000445422
0.000447699
0.000449903
0.000452037
0.000454103
0.000456103
0.000458039
0.000459913
0.000461728
0.000463486
0.000465189
0.000466838
0.000468438
0.000469989
0.000471493
0.000472954
0.000474372
0.00047575
0.00047709
0.000478394
0.000479664
0.000480901
0.000482107
0.000483284
0.000484433
0.000485556
0.000486655
0.000487731
0.000488786
0.00048982
0.000490837
0.000491836
0.00049282
0.000493789
0.000494746
0.000495692
0.00049663
0.000497561
0.000498489
0.000499417
0.000500349
0.00050129
0.000502247
0.000503227
0.000504237
0.000505288
0.000506388
0.000507539
0.00050877
0.000510095
0.000511535
0.00051311
0.000514852
0.000516798
0.000518992
0.0005215
0.000524414
0.000527863
0.000532023
0.000536601
0.000541155
0.000544504
0.000291472
0.000295979
0.000301197
0.000306478
0.000311711
0.00031687
0.000321949
0.000326945
0.000331853
0.000336671
0.000341396
0.000346026
0.000350559
0.000354992
0.000359324
0.000363554
0.00036768
0.0003717
0.000375615
0.000379424
0.000383125
0.000386719
0.000390206
0.000393585
0.000396857
0.000400023
0.000403082
0.000406036
0.000408885
0.00041163
0.000414271
0.000416811
0.000419251
0.000421591
0.000423832
0.000425977
0.000428027
0.000429982
0.000431845
0.000433618
0.000435301
0.000436896
0.000438406
0.00043983
0.000441172
0.000442432
0.000443612
0.000444713
0.000445738
0.000446687
0.000447561
0.000448362
0.000449091
0.00044975
0.000450339
0.000450859
0.00045131
0.000451695
0.000452013
0.000452265
0.000452452
0.000452573
0.00045263
0.000452622
0.000452548
0.000452409
0.000452204
0.000451932
0.000451591
0.000451182
0.000450703
0.000450152
0.000449527
0.000448828
0.000448051
0.000447195
0.000446257
0.000445236
0.000444128
0.000442932
0.000441645
0.000440265
0.00043879
0.000437219
0.000435552
0.000433792
0.000431926
0.00042994
0.00042781
0.0004255
0.000422987
0.000420235
0.000417204
0.000413854
0.000410139
0.000406006
0.000401419
0.000396406
0.000391429
0.000387754
0.000286954
0.000291335
0.000296422
0.000301573
0.00030667
0.00031169
0.000316626
0.000321474
0.000326229
0.00033089
0.000335452
0.000339914
0.000344273
0.000348526
0.000352672
0.000356708
0.000360634
0.000364448
0.000368148
0.000371733
0.000375204
0.000378559
0.000381797
0.000384919
0.000387924
0.000390812
0.000393584
0.000396239
0.000398779
0.000401203
0.000403512
0.000405707
0.000407789
0.000409758
0.000411616
0.000413363
0.000415
0.000416528
0.000417948
0.000419262
0.00042047
0.000421574
0.000422573
0.00042347
0.000424265
0.00042496
0.000425554
0.000426049
0.000426446
0.000426745
0.000426946
0.00042705
0.000427058
0.00042697
0.000426786
0.000426505
0.000426128
0.000425655
0.000425084
0.000424416
0.000423649
0.000422783
0.000421816
0.000420746
0.000419573
0.000418294
0.000416907
0.000415408
0.000413795
0.000412066
0.000410215
0.000408239
0.000406135
0.000403895
0.000401517
0.000398992
0.000396316
0.000393481
0.000390479
0.000387302
0.000383941
0.000380388
0.00037663
0.000372655
0.000368452
0.000364001
0.000359281
0.000354262
0.000348913
0.000343201
0.000337048
0.000330341
0.00032298
0.000314901
0.00030603
0.000296315
0.000285819
0.000274921
0.000264745
0.000257728
0.000281257
0.000285513
0.000290479
0.000295511
0.00030049
0.000305389
0.000310201
0.000314922
0.000319548
0.000324075
0.0003285
0.000332821
0.000337034
0.000341138
0.000345129
0.000349006
0.000352766
0.000356409
0.000359932
0.000363334
0.000366614
0.000369771
0.000372803
0.000375712
0.000378495
0.000381153
0.000383685
0.000386092
0.000388372
0.000390527
0.000392557
0.000394461
0.00039624
0.000397895
0.000399425
0.000400833
0.000402117
0.000403278
0.000404318
0.000405236
0.000406034
0.000406711
0.000407268
0.000407706
0.000408024
0.000408224
0.000408305
0.000408268
0.000408113
0.00040784
0.000407448
0.000406937
0.000406307
0.000405558
0.000404688
0.000403697
0.000402585
0.000401348
0.000399987
0.0003985
0.000396884
0.000395137
0.000393258
0.000391244
0.000389091
0.000386795
0.000384354
0.000381764
0.000379018
0.000376114
0.000373044
0.000369804
0.000366387
0.000362784
0.000358989
0.000354994
0.000350788
0.000346361
0.000341703
0.000336802
0.000331645
0.000326218
0.000320504
0.000314488
0.000308149
0.000301463
0.000294403
0.000286938
0.000279031
0.000270638
0.000261704
0.00025217
0.000241916
0.000230853
0.000218988
0.000206359
0.000193172
0.000179996
0.000168122
0.000160081
0.000274796
0.000278927
0.000283782
0.000288711
0.000293588
0.000298384
0.000303092
0.000307707
0.000312225
0.000316643
0.000320957
0.000325164
0.00032926
0.000333244
0.000337112
0.000340862
0.000344492
0.000348
0.000351383
0.000354641
0.000357771
0.000360773
0.000363644
0.000366385
0.000368994
0.00037147
0.000373813
0.000376023
0.000378098
0.00038004
0.000381847
0.000383519
0.000385057
0.00038646
0.000387728
0.000388862
0.000389862
0.000390727
0.000391458
0.000392055
0.000392518
0.000392847
0.000393042
0.000393103
0.00039303
0.000392823
0.000392481
0.000392004
0.000391392
0.000390644
0.000389759
0.000388736
0.000387575
0.000386275
0.000384833
0.000383248
0.000381519
0.000379644
0.00037762
0.000375446
0.000373117
0.000370632
0.000367987
0.000365179
0.000362203
0.000359055
0.00035573
0.000352224
0.00034853
0.000344642
0.000340555
0.00033626
0.000331749
0.000327015
0.000322048
0.000316838
0.000311374
0.000305646
0.000299641
0.000293345
0.000286746
0.000279829
0.000272576
0.000264972
0.000256998
0.000248633
0.000239855
0.000230642
0.000220969
0.000210811
0.000200145
0.000188957
0.000177237
0.000164904
0.000152042
0.00013878
0.000125409
0.000112512
0.000101198
9.35018e-05
0.000268024
0.000272037
0.000276791
0.000281632
0.000286422
0.000291134
0.000295756
0.000300286
0.000304718
0.000309049
0.000313275
0.000317393
0.000321399
0.000325291
0.000329066
0.00033272
0.000336252
0.000339658
0.000342937
0.000346087
0.000349106
0.000351992
0.000354743
0.00035736
0.000359839
0.000362181
0.000364384
0.000366447
0.00036837
0.000370152
0.000371793
0.000373292
0.000374648
0.000375862
0.000376933
0.000377861
0.000378646
0.000379287
0.000379784
0.000380137
0.000380345
0.000380409
0.000380328
0.000380101
0.000379728
0.000379208
0.000378541
0.000377726
0.000376762
0.000375647
0.000374382
0.000372963
0.000371391
0.000369662
0.000367776
0.000365731
0.000363523
0.000361151
0.000358612
0.000355903
0.00035302
0.00034996
0.000346719
0.000343293
0.000339678
0.000335868
0.000331858
0.000327642
0.000323215
0.000318569
0.000313697
0.000308592
0.000303245
0.000297648
0.000291791
0.000285663
0.000279256
0.000272557
0.000265555
0.000258237
0.000250592
0.000242607
0.000234269
0.000225565
0.000216482
0.000207008
0.000197133
0.00018685
0.000176154
0.00016505
0.000153554
0.000141701
0.00012955
0.00011716
0.00010459
9.20418e-05
7.98216e-05
6.84302e-05
5.8675e-05
5.19332e-05
0.00026139
0.000265291
0.000269957
0.000274722
0.000279443
0.000284087
0.000288643
0.000293106
0.000297473
0.000301739
0.0003059
0.000309953
0.000313894
0.00031772
0.000321427
0.000325014
0.000328476
0.000331811
0.000335018
0.000338093
0.000341034
0.000343841
0.00034651
0.00034904
0.00035143
0.000353679
0.000355785
0.000357747
0.000359565
0.000361236
0.000362762
0.00036414
0.00036537
0.000366453
0.000367386
0.000368169
0.000368803
0.000369286
0.000369619
0.0003698
0.000369829
0.000369705
0.000369428
0.000368997
0.000368411
0.00036767
0.000366772
0.000365717
0.000364502
0.000363128
0.000361592
0.000359892
0.000358028
0.000355996
0.000353795
0.000351423
0.000348876
0.000346153
0.00034325
0.000340163
0.000336889
0.000333425
0.000329766
0.000325907
0.000321844
0.000317572
0.000313086
0.000308378
0.000303443
0.000298275
0.000292865
0.000287207
0.000281293
0.000275113
0.00026866
0.000261924
0.000254895
0.000247563
0.000239919
0.000231952
0.000223654
0.000215013
0.000206023
0.000196676
0.000186966
0.00017689
0.00016645
0.000155653
0.000144514
0.000133063
0.000121348
0.000109441
9.74522e-05
8.55267e-05
7.3744e-05
6.23161e-05
5.15318e-05
4.17958e-05
3.36578e-05
2.79442e-05
0.000255308
0.000259105
0.000263694
0.000268399
0.000273067
0.00027766
0.000282168
0.000286585
0.000290906
0.000295127
0.000299244
0.000303254
0.000307152
0.000310935
0.000314599
0.000318143
0.000321561
0.000324853
0.000328014
0.000331043
0.000333937
0.000336694
0.000339312
0.00034179
0.000344125
0.000346317
0.000348363
0.000350263
0.000352014
0.000353617
0.00035507
0.000356373
0.000357524
0.000358522
0.000359367
0.000360059
0.000360596
0.000360978
0.000361205
0.000361275
0.000361187
0.000360942
0.000360538
0.000359975
0.000359251
0.000358366
0.000357318
0.000356107
0.000354731
0.000353188
0.000351477
0.000349596
0.000347543
0.000345317
0.000342914
0.000340334
0.000337571
0.000334625
0.000331492
0.000328169
0.000324651
0.000320936
0.000317018
0.000312894
0.000308559
0.000304008
0.000299235
0.000294235
0.000289001
0.000283528
0.000277808
0.000271835
0.000265601
0.000259098
0.000252319
0.000245255
0.000237898
0.00023024
0.000222273
0.00021399
0.000205382
0.000196446
0.000187175
0.000177568
0.000167625
0.000157349
0.00014675
0.000135846
0.000124661
0.00011324
0.000101644
8.99654e-05
7.83302e-05
6.69079e-05
5.58405e-05
4.53073e-05
3.55787e-05
2.70036e-05
1.99942e-05
1.50459e-05
0.00025016
0.000253861
0.000258384
0.000263044
0.000267675
0.000272236
0.000276713
0.000281101
0.000285395
0.00028959
0.000293682
0.000297667
0.000301542
0.000305302
0.000308945
0.000312466
0.000315863
0.000319133
0.000322272
0.000325279
0.00032815
0.000330883
0.000333477
0.000335929
0.000338238
0.000340401
0.000342417
0.000344285
0.000346003
0.000347571
0.000348986
0.000350249
0.000351357
0.000352311
0.000353108
0.00035375
0.000354234
0.00035456
0.000354727
0.000354734
0.000354581
0.000354267
0.000353791
0.000353152
0.000352349
0.000351381
0.000350246
0.000348945
0.000347475
0.000345835
0.000344023
0.000342038
0.000339878
0.00033754
0.000335024
0.000332325
0.000329442
0.000326373
0.000323113
0.00031966
0.00031601
0.000312161
0.000308107
0.000303845
0.000299371
0.000294679
0.000289765
0.000284624
0.00027925
0.000273638
0.000267781
0.000261673
0.000255309
0.00024868
0.000241781
0.000234605
0.000227145
0.000219394
0.000211347
0.000202998
0.000194342
0.000185376
0.000176099
0.000166511
0.000156615
0.00014642
0.000135937
0.000125188
0.0001142
0.000103018
9.17029e-05
8.03415e-05
6.90511e-05
5.79813e-05
4.73189e-05
3.72146e-05
2.79227e-05
1.97816e-05
1.31919e-05
8.55839e-06
0.000246307
0.000249919
0.000254391
0.000259021
0.000263632
0.000268175
0.000272638
0.000277013
0.000281295
0.000285479
0.000289562
0.000293539
0.000297406
0.00030116
0.000304797
0.000308313
0.000311705
0.00031497
0.000318105
0.000321107
0.000323974
0.000326702
0.000329291
0.000331738
0.00033404
0.000336196
0.000338205
0.000340064
0.000341773
0.00034333
0.000344733
0.000345983
0.000347077
0.000348014
0.000348795
0.000349417
0.00034988
0.000350183
0.000350326
0.000350307
0.000350126
0.000349782
0.000349274
0.000348601
0.000347762
0.000346756
0.000345582
0.000344239
0.000342725
0.00034104
0.000339181
0.000337148
0.000334938
0.000332549
0.000329979
0.000327227
0.000324289
0.000321163
0.000317847
0.000314338
0.000310631
0.000306725
0.000302616
0.000298299
0.00029377
0.000289026
0.000284063
0.000278874
0.000273457
0.000267805
0.000261913
0.000255777
0.00024939
0.000242747
0.000235844
0.000228673
0.000221231
0.000213511
0.000205511
0.000197225
0.000188652
0.000179789
0.000170639
0.000161202
0.000151485
0.000141497
0.000131251
0.000120767
0.000110072
9.92018e-05
8.82083e-05
7.71617e-05
6.61577e-05
5.53188e-05
4.48072e-05
3.4776e-05
2.54499e-05
1.71611e-05
1.0361e-05
5.53692e-06
0.000244116
0.000247653
0.000252091
0.000256707
0.000261311
0.00026585
0.00027031
0.000274684
0.000278965
0.00028315
0.000287235
0.000291214
0.000295085
0.000298842
0.000302483
0.000306003
0.000309401
0.000312671
0.000315811
0.000318819
0.000321692
0.000324426
0.000327021
0.000329473
0.000331781
0.000333943
0.000335957
0.000337821
0.000339535
0.000341096
0.000342503
0.000343755
0.000344851
0.000345791
0.000346572
0.000347194
0.000347657
0.000347959
0.0003481
0.000348078
0.000347893
0.000347545
0.000347031
0.000346352
0.000345506
0.000344492
0.000343309
0.000341957
0.000340433
0.000338737
0.000336867
0.000334822
0.000332599
0.000330197
0.000327614
0.000324848
0.000321897
0.000318758
0.000315429
0.000311906
0.000308188
0.00030427
0.00030015
0.000295824
0.000291288
0.000286539
0.000281571
0.000276382
0.000270966
0.000265319
0.000259436
0.000253313
0.000246944
0.000240326
0.000233452
0.000226319
0.000218922
0.000211257
0.00020332
0.000195109
0.000186622
0.000177859
0.000168821
0.000159512
0.000149938
0.000140108
0.000130036
0.00011974
0.000109244
9.85782e-05
8.77807e-05
7.69054e-05
6.60331e-05
5.52863e-05
4.48183e-05
3.47815e-05
2.53632e-05
1.68409e-05
9.64589e-06
4.35312e-06
0.000997556
0.000997541
0.000996984
0.000996205
0.000995286
0.000994251
0.000993106
0.000991844
0.000990453
0.000988911
0.000987187
0.00098524
0.000983018
0.00098046
0.000977502
0.000974094
0.000970225
0.000965994
0.000961762
0.000958477
0.000995505
0.000995309
0.000994347
0.000993045
0.000991539
0.000989878
0.000988074
0.000986123
0.000984007
0.000981695
0.000979142
0.000976287
0.000973057
0.000969365
0.000965128
0.000960281
0.000954831
0.000948956
0.000943212
0.000938939
0.000991342
0.000990681
0.00098907
0.000986997
0.000984649
0.000982102
0.000979383
0.000976492
0.000973407
0.000970084
0.00096646
0.000962452
0.00095796
0.000952869
0.000947073
0.000940498
0.000933175
0.000925377
0.000917882
0.000912468
0.000982812
0.000981422
0.000978868
0.000975746
0.000972287
0.000968594
0.000964712
0.000960647
0.000956372
0.000951833
0.000946945
0.000941597
0.00093566
0.000928989
0.000921454
0.000912976
0.000903622
0.000893781
0.000884484
0.000877985
0.000966163
0.000963822
0.000960078
0.000955678
0.000950906
0.000945894
0.000940701
0.00093534
0.000929779
0.000923952
0.000917752
0.00091104
0.000903654
0.000895422
0.000886188
0.000875877
0.000864611
0.000852917
0.000842102
0.000834821
0.000935745
0.000932378
0.000927389
0.000921689
0.00091562
0.000909343
0.000902931
0.000896399
0.000889714
0.000882796
0.000875516
0.000867709
0.000859188
0.000849751
0.000839227
0.000827556
0.00081493
0.000802041
0.000790466
0.000783019
0.000884202
0.000880036
0.000874123
0.000867496
0.000860549
0.000853466
0.000846328
0.000839153
0.000831906
0.000824493
0.000816767
0.000808555
0.000799652
0.000789841
0.000778943
0.000766923
0.00075406
0.000741209
0.000730144
0.000723428
0.000803854
0.000799538
0.000793542
0.00078691
0.000780049
0.000773151
0.000766297
0.000759507
0.000752732
0.000745868
0.000738785
0.000731323
0.000723285
0.000714455
0.000704663
0.000693903
0.000682526
0.000671496
0.000662516
0.000657432
0.000689788
0.000686366
0.000681633
0.000676449
0.000671156
0.000665924
0.000660813
0.000655827
0.000650905
0.000645978
0.000640964
0.000635752
0.000630184
0.000624094
0.000617334
0.00060992
0.000602206
0.000595041
0.000589616
0.000586761
0.00054479
0.000543415
0.00054149
0.00053941
0.000537331
0.000535345
0.000533468
0.000531694
0.000530012
0.000528416
0.000526876
0.000525363
0.00052381
0.000522169
0.000520366
0.000518411
0.000516464
0.000514842
0.000513883
0.000513529
0.00038726
0.000388512
0.000390333
0.000392357
0.000394451
0.00039655
0.000398663
0.000400823
0.000403061
0.000405417
0.000407927
0.000410653
0.000413672
0.000417072
0.000420945
0.00042527
0.000429827
0.000434188
0.000437819
0.000440104
0.000257333
0.000260278
0.000264434
0.000269048
0.000273835
0.000278664
0.000283495
0.000288337
0.000293262
0.000298354
0.000303704
0.000309431
0.000315694
0.000322657
0.000330455
0.000339069
0.000348172
0.000356949
0.000364183
0.000368655
0.000159614
0.000163194
0.000168255
0.000173912
0.000179829
0.000185858
0.000191942
0.000198078
0.00020432
0.000210767
0.000217551
0.000224824
0.000232773
0.000241591
0.000251432
0.0002623
0.000273888
0.000285338
0.000295064
0.000301146
9.2673e-05
9.60271e-05
0.000100874
0.000106358
0.000112159
0.000118136
0.000124232
0.000130443
0.000136811
0.000143423
0.000150416
0.000157948
0.000166205
0.000175379
0.000185628
0.000196988
0.000209217
0.000221563
0.000232422
0.000239347
5.06365e-05
5.32735e-05
5.72631e-05
6.18653e-05
6.6805e-05
7.19608e-05
7.72818e-05
8.27644e-05
8.84453e-05
9.43996e-05
0.000100745
0.000107626
0.00011521
0.000123673
0.000133167
0.000143748
0.000155252
0.00016707
0.000177789
0.000184803
2.62575e-05
2.80394e-05
3.09673e-05
3.44428e-05
3.82425e-05
4.2267e-05
4.64751e-05
5.08646e-05
5.54669e-05
6.03452e-05
6.5594e-05
7.13352e-05
7.771e-05
8.48695e-05
9.29499e-05
0.00010202
0.000111977
0.000122362
0.000132022
0.000138587
1.31076e-05
1.41278e-05
1.60822e-05
1.84987e-05
2.11985e-05
2.41036e-05
2.71838e-05
3.04403e-05
3.38995e-05
3.76117e-05
4.16505e-05
4.61118e-05
5.11093e-05
5.67664e-05
6.31988e-05
7.04764e-05
7.85444e-05
8.70714e-05
9.51655e-05
0.000100873
6.4557e-06
6.90842e-06
8.11325e-06
9.68584e-06
1.14831e-05
1.34483e-05
1.55634e-05
1.78329e-05
2.02785e-05
2.29385e-05
2.58677e-05
2.91378e-05
3.28357e-05
3.70581e-05
4.18989e-05
4.74222e-05
5.36052e-05
6.02202e-05
6.66083e-05
7.12562e-05
3.24465e-06
3.34615e-06
4.04682e-06
5.01508e-06
6.14512e-06
7.40211e-06
8.77808e-06
1.02791e-05
1.19221e-05
1.37345e-05
1.57555e-05
1.80362e-05
2.06397e-05
2.36381e-05
2.71046e-05
3.10943e-05
3.56049e-05
4.0491e-05
4.52897e-05
4.88775e-05
1.67531e-06
1.6494e-06
2.04492e-06
2.61145e-06
3.28663e-06
4.05315e-06
4.90879e-06
5.85927e-06
6.91673e-06
8.10004e-06
9.43561e-06
1.09582e-05
1.27114e-05
1.47458e-05
1.71154e-05
1.98647e-05
2.30043e-05
2.64545e-05
2.99217e-05
3.26228e-05
0.001
0.001
0.001
0.001
0.001
0.001
0.001
0.001
0.001
0.001
0.001
0.001
0.001
0.001
0.001
0.001
0.001
0.001
0.001
0.001
0.001
0.001
0.001
0.001
0.001
0.001
0.001
0.001
0.001
0.001
0.001
0.001
0.001
0.001
0.001
0.001
0.001
0.001
0.001
0.001
0.001
0.001
0.001
0.001
0.001
0.001
0.001
0.001
0.001
0.001
0.001
0.001
0.001
0.001
0.001
0.001
0.001
0.001
0.001
0.001
0.001
0.001
0.001
0.001
0.001
0.001
0.001
0.001
0.001
0.001
0.001
0.001
0.001
0.001
0.001
0.001
0.001
0.001
0.001
0.001
0.001
0.001
0.001
0.001
0.001
0.001
0.001
0.001
0.001
0.001
0.001
0.001
0.001
0.001
0.001
0.001
0.001
0.001
0.001
0.001
0.001
0.001