/*--------------------------------*- C++ -*----------------------------------*\
| =========                 |                                                 |
| \\      /  F ield         | OpenFOAM: The Open Source CFD Toolbox           |
|  \\    /   O peration     | Version:  2.1.0                                 |
|   \\  /    A nd           | Web:      www.OpenFOAM.org                      |
|    \\/     M anipulation  |                                                 |
\*---------------------------------------------------------------------------*/
FoamFile
{
    version     2.0;
    format      ascii;
    class       volScalarField;
    location    "0.32";
    object      k;
}
// * * * * * * * * * * * * * * * * * * * * * * * * * * * * * * * * * * * * * //

dimensions      [0 2 -2 0 0 0 0];

internalField   nonuniform List<scalar> 
6400
(
0.0321255
0.0322241
0.0322531
0.032283
0.0322956
0.0323132
0.0323198
0.032329
0.0323316
0.0323337
0.0323332
0.0323323
0.0323267
0.0323205
0.0323099
0.0322989
0.0322842
0.0322682
0.0322492
0.0322285
0.0322057
0.0321806
0.0321542
0.0321249
0.0320948
0.0320615
0.0320274
0.0319902
0.0319522
0.0319109
0.0318689
0.0318236
0.0317774
0.0317278
0.0316769
0.0316227
0.0315667
0.0315071
0.0314447
0.0313782
0.0313081
0.0312329
0.031153
0.031067
0.0309749
0.0308754
0.0307685
0.0306528
0.0305283
0.0303935
0.0302486
0.0300913
0.0299198
0.0297323
0.0295309
0.0293243
0.0291053
0.0288795
0.0286423
0.0283971
0.0281437
0.02788
0.0276086
0.0273257
0.0270337
0.0267298
0.0264155
0.0260877
0.0257434
0.0253862
0.0250103
0.0246183
0.0242072
0.0237773
0.0233285
0.0228603
0.0223747
0.0218719
0.021355
0.0208251
0.0202849
0.0197328
0.0191615
0.0185425
0.0178903
0.0172049
0.0164674
0.0156572
0.0147376
0.0136606
0.0123523
0.0107077
0.0086339
0.00617047
0.00354047
0.00235849
0.00275073
0.00552877
0.00876173
0.00991515
0.0524435
0.0528297
0.0530051
0.053316
0.0535128
0.0538133
0.0540276
0.0543162
0.0545452
0.0548238
0.0550641
0.0553351
0.0555833
0.0558485
0.0561014
0.0563624
0.0566177
0.0568752
0.0571314
0.0573868
0.0576439
0.0578988
0.0581583
0.0584152
0.0586776
0.0589382
0.0592044
0.0594694
0.0597399
0.0600097
0.0602852
0.0605605
0.0608416
0.0611232
0.0614104
0.061699
0.0619932
0.0622902
0.0625912
0.0628939
0.0631998
0.0635064
0.0638146
0.0641216
0.0644279
0.0647302
0.0650287
0.0653195
0.0656025
0.065874
0.0661356
0.066389
0.0666265
0.0668457
0.0670437
0.0672442
0.0674264
0.0676028
0.0677576
0.0678969
0.0680253
0.0681337
0.0682309
0.0683063
0.0683657
0.0683971
0.0684095
0.0684043
0.0683482
0.068265
0.0681284
0.0679451
0.0676987
0.0673863
0.0669969
0.0665225
0.0659555
0.0652867
0.064511
0.0636213
0.0626165
0.0614957
0.0602672
0.0589139
0.0573799
0.0556376
0.0536395
0.0513375
0.048658
0.0455384
0.0419208
0.0377772
0.0331609
0.0283268
0.0233627
0.0186267
0.014974
0.0124023
0.010776
0.00921974
0.0587091
0.0592324
0.0594695
0.0598929
0.0601806
0.0605834
0.0609013
0.0612895
0.0616278
0.0620068
0.0623589
0.0627327
0.0630942
0.063465
0.0638325
0.0642012
0.0645715
0.0649378
0.0653076
0.0656707
0.0660391
0.0664002
0.0667682
0.0671313
0.0675004
0.067866
0.0682368
0.0686044
0.0689767
0.0693459
0.0697195
0.0700899
0.0704641
0.0708351
0.071209
0.0715794
0.0719508
0.0723178
0.0726849
0.0730477
0.0734089
0.073764
0.0741153
0.074458
0.0747936
0.0751163
0.0754265
0.0757168
0.075986
0.0762247
0.0764237
0.0766069
0.0767682
0.0769136
0.0770352
0.0771411
0.0772196
0.0772828
0.0773161
0.0773308
0.0773269
0.0772704
0.0771898
0.0770628
0.0768989
0.076688
0.0764316
0.0761242
0.075762
0.0753415
0.0748537
0.0742944
0.073653
0.0729218
0.0720899
0.0711468
0.070082
0.0688841
0.0675441
0.0660516
0.0644006
0.062584
0.0605983
0.0584378
0.0561206
0.053646
0.0510163
0.0482247
0.0452583
0.0420952
0.0387028
0.0350395
0.03109
0.0268402
0.0224119
0.0180637
0.0144174
0.0114528
0.00927192
0.00710765
0.0633002
0.0638496
0.0640991
0.064562
0.0648844
0.065324
0.0656843
0.0661077
0.06649
0.0669034
0.0672989
0.0677066
0.0681102
0.0685148
0.0689228
0.0693256
0.0697353
0.0701363
0.0705452
0.0709422
0.0713428
0.0717276
0.0721106
0.0724876
0.0728656
0.0732372
0.0736088
0.0739725
0.0743354
0.0746888
0.07504
0.0753804
0.0757168
0.0760409
0.0763587
0.0766632
0.0769589
0.0772386
0.0775064
0.0777568
0.0779923
0.078207
0.0784041
0.0785767
0.0787284
0.0788518
0.0789508
0.0790158
0.0790473
0.0790571
0.0790317
0.0789699
0.0788711
0.0787355
0.0785545
0.0783324
0.0780561
0.0777312
0.0773422
0.0768945
0.0763802
0.0757967
0.0751409
0.0744069
0.0735928
0.0726934
0.0717071
0.0706308
0.0694629
0.068203
0.0668497
0.0654052
0.0638694
0.0622462
0.0605365
0.0587451
0.056874
0.0549282
0.0529101
0.0508239
0.048672
0.0464576
0.0441828
0.0418504
0.0394632
0.0370228
0.0345349
0.0320215
0.0294763
0.0269167
0.024344
0.0217721
0.019207
0.0166665
0.0141838
0.011841
0.00967941
0.00784992
0.00658373
0.00598939
0.0645418
0.0650227
0.065237
0.0656517
0.065929
0.0663205
0.0666286
0.0669983
0.0673208
0.0676724
0.0679995
0.0683357
0.0686609
0.0689829
0.0693012
0.0696087
0.0699159
0.0702082
0.0705
0.0707751
0.0710483
0.0713049
0.0715588
0.0717968
0.0720303
0.072247
0.0724562
0.0726467
0.0728271
0.0729863
0.0731325
0.0732549
0.0733611
0.0734406
0.0734968
0.0735231
0.0735314
0.0735068
0.0734484
0.0733558
0.0732291
0.0730615
0.0728569
0.0726064
0.0723154
0.071974
0.0715887
0.0711493
0.0706629
0.0701208
0.069527
0.0688761
0.068171
0.0674075
0.0665896
0.0657149
0.064783
0.0637946
0.0627479
0.0616456
0.0604861
0.0592722
0.0580041
0.0566841
0.0553139
0.0538954
0.0524315
0.0509244
0.049377
0.0477925
0.0461738
0.0445243
0.0428476
0.0411495
0.0394364
0.0377106
0.0359779
0.0342413
0.032507
0.0307786
0.0290631
0.0273652
0.0256925
0.0240504
0.0224456
0.0208839
0.0193701
0.0178918
0.0164655
0.0150805
0.0137485
0.0124609
0.0112297
0.0100517
0.0089456
0.00792772
0.00702279
0.00639551
0.00612399
0.00612158
0.0607767
0.0610033
0.0611058
0.0613176
0.0614567
0.0616502
0.0617974
0.0619655
0.0621064
0.0622471
0.062373
0.0624855
0.0625902
0.0626732
0.0627516
0.0628031
0.0628467
0.0628664
0.0628739
0.0628629
0.0628291
0.0627732
0.0626992
0.0625968
0.0624765
0.0623311
0.0621675
0.0619747
0.0617617
0.0615166
0.0612487
0.0609462
0.0606183
0.0602539
0.0598615
0.0594316
0.0589715
0.0584722
0.0579408
0.0573705
0.0567669
0.056124
0.0554478
0.0547324
0.0539845
0.0531978
0.0523803
0.0515252
0.0506413
0.0497217
0.0487754
0.0477962
0.0467928
0.0457603
0.0447059
0.0436265
0.0425281
0.0414093
0.0402789
0.0391337
0.0379809
0.0368188
0.0356537
0.034485
0.0333181
0.0321532
0.0309948
0.0298439
0.0287047
0.0275784
0.0264688
0.0253776
0.0243076
0.0232595
0.0222325
0.0212313
0.0202557
0.0193095
0.0183937
0.0175097
0.016655
0.0158303
0.0150357
0.0142704
0.0135343
0.0128253
0.0121429
0.0114841
0.0108482
0.0102306
0.00963087
0.00904448
0.0084728
0.00791552
0.00738439
0.00689291
0.00653379
0.00637772
0.00635195
0.00656933
0.0509091
0.0507373
0.0506671
0.0505477
0.0504717
0.0503428
0.0502445
0.0500931
0.0499655
0.0497859
0.0496253
0.0494149
0.0492196
0.0489768
0.0487457
0.0484698
0.0482027
0.0478943
0.0475911
0.0472511
0.0469086
0.0465308
0.0461475
0.0457307
0.0453064
0.0448504
0.0443851
0.0438894
0.043383
0.0428478
0.0423009
0.0417269
0.041141
0.0405299
0.0399071
0.0392615
0.0386049
0.0379281
0.0372414
0.0365382
0.0358282
0.035105
0.0343772
0.0336397
0.0329001
0.0321542
0.0314093
0.030661
0.0299174
0.0291732
0.028437
0.0277033
0.0269807
0.0262636
0.0255576
0.0248593
0.0241749
0.0235014
0.0228408
0.0221927
0.0215592
0.0209397
0.0203358
0.0197466
0.0191732
0.0186159
0.0180745
0.0175466
0.0170335
0.0165332
0.0160463
0.015571
0.0151073
0.0146535
0.0142092
0.0137727
0.0133434
0.012919
0.0124982
0.0120849
0.0116862
0.0112972
0.010921
0.010553
0.0101962
0.00984592
0.0095056
0.00917111
0.00884653
0.00852927
0.00822524
0.00793463
0.00766625
0.00742456
0.00722804
0.00710258
0.00705032
0.00709625
0.00743519
0.00762622
0.0372395
0.036756
0.0365534
0.0361741
0.0359425
0.0355653
0.0353006
0.0349153
0.0346176
0.0342191
0.0338902
0.033476
0.0331176
0.0326864
0.0323004
0.0318515
0.0314392
0.0309722
0.0305346
0.0300491
0.0295935
0.0291011
0.0286344
0.0281383
0.0276652
0.0271621
0.0266801
0.026174
0.0256883
0.0251836
0.0246993
0.0242004
0.0237219
0.0232331
0.0227647
0.0222899
0.0218358
0.0213785
0.0209421
0.0205049
0.0200873
0.0196713
0.0192749
0.0188821
0.0185089
0.0181407
0.0177921
0.0174494
0.0171262
0.0168092
0.0165108
0.0162202
0.0159476
0.0156835
0.0154361
0.015198
0.0149753
0.0147617
0.0145618
0.0143712
0.0141927
0.0140234
0.013865
0.0137156
0.0135762
0.0134437
0.0133202
0.0132052
0.0130988
0.0129991
0.0129072
0.0128205
0.0127406
0.0126643
0.0125938
0.0125252
0.0124609
0.012397
0.0123354
0.0122723
0.0122082
0.0121384
0.0120639
0.0119796
0.0118864
0.0117786
0.0116573
0.0115176
0.0113614
0.0111859
0.0109963
0.0107949
0.0105931
0.0104012
0.0102615
0.0101997
0.0101906
0.0104274
0.0107844
0.0109588
0.0240102
0.0234052
0.0231561
0.0226866
0.0224232
0.0219703
0.0216932
0.0212532
0.0209654
0.0205371
0.020242
0.0198256
0.0195266
0.0191227
0.018823
0.0184325
0.018135
0.0177592
0.017467
0.0171072
0.0168257
0.0164872
0.0162193
0.0159029
0.0156502
0.0153563
0.0151205
0.01485
0.0146325
0.014386
0.0141878
0.013966
0.0137875
0.0135906
0.0134322
0.0132604
0.013122
0.012975
0.0128571
0.0127339
0.0126365
0.0125365
0.0124598
0.0123824
0.0123263
0.012271
0.0122356
0.0122032
0.0121876
0.0121803
0.0121792
0.0121947
0.0122159
0.0122512
0.0122931
0.0123483
0.0124108
0.0124864
0.0125703
0.0126671
0.0127727
0.012891
0.0130186
0.0131587
0.0133088
0.0134714
0.0136446
0.0138297
0.014026
0.0142344
0.0144547
0.0146874
0.0149328
0.0151908
0.015462
0.0157462
0.0160441
0.0163549
0.0166793
0.0170161
0.0173655
0.0177255
0.0180958
0.0184733
0.0188566
0.0192407
0.0196227
0.0199964
0.0203573
0.0206984
0.0210156
0.0213047
0.0215664
0.021805
0.0220351
0.0223032
0.0227422
0.0233344
0.0241481
0.0250254
0.0174227
0.0168692
0.0166457
0.0162207
0.0159996
0.015596
0.0153794
0.0149987
0.014789
0.0144327
0.0142324
0.0139015
0.0137127
0.013408
0.0132326
0.0129545
0.012794
0.012543
0.0123985
0.0121745
0.012047
0.0118496
0.0117392
0.0115678
0.0114746
0.0113283
0.0112522
0.0111309
0.0110706
0.010975
0.0109283
0.0108587
0.0108252
0.0107809
0.0107604
0.0107421
0.0107354
0.0107337
0.0107463
0.0107635
0.0107949
0.0108295
0.010879
0.0109313
0.0109984
0.0110689
0.0111533
0.0112421
0.0113441
0.0114514
0.0115713
0.0116977
0.0118357
0.0119815
0.0121386
0.0123044
0.0124814
0.0126681
0.0128658
0.0130744
0.0132944
0.0135262
0.0137703
0.0140273
0.0142974
0.0145817
0.0148802
0.0151942
0.015524
0.0158709
0.0162353
0.0166186
0.0170217
0.0174461
0.0178929
0.0183637
0.0188602
0.0193841
0.0199376
0.0205227
0.0211423
0.0217989
0.0224959
0.0232368
0.0240258
0.0248675
0.0257683
0.0267338
0.0277725
0.0288927
0.0301055
0.0314227
0.0328598
0.0344335
0.0361627
0.0380588
0.0401035
0.0422989
0.0438207
0.0444424
0.0213915
0.0208347
0.0206046
0.020162
0.0199183
0.0194885
0.0192341
0.0188179
0.0185566
0.0181551
0.0178909
0.0175057
0.0172422
0.0168747
0.0166157
0.0162679
0.0160171
0.0156906
0.0154513
0.0151475
0.0149223
0.014642
0.0144331
0.0141772
0.0139861
0.0137551
0.013583
0.0133771
0.0132248
0.0130442
0.012912
0.0127567
0.0126449
0.0125149
0.0124235
0.0123185
0.0122473
0.012167
0.0121166
0.0120605
0.012031
0.0120027
0.0119906
0.0119863
0.0119907
0.0120113
0.012038
0.0120792
0.0121279
0.0121896
0.0122601
0.0123427
0.0124348
0.0125387
0.0126528
0.0127783
0.0129145
0.013062
0.0132206
0.0133908
0.0135724
0.0137659
0.0139715
0.01419
0.014421
0.014666
0.0149241
0.0151973
0.0154846
0.0157882
0.016107
0.0164434
0.0167968
0.0171696
0.0175612
0.0179743
0.0184088
0.0188675
0.0193505
0.019861
0.0203997
0.0209699
0.0215731
0.022213
0.0228919
0.0236139
0.024382
0.0252006
0.026074
0.0270078
0.0280124
0.0290957
0.0302708
0.0315523
0.032964
0.0345325
0.0362968
0.0382289
0.0397941
0.0404836
0.0325875
0.032086
0.0318721
0.03146
0.031209
0.0307951
0.0305072
0.0300854
0.029764
0.0293322
0.0289821
0.0285412
0.0281674
0.0277141
0.0273147
0.0268512
0.0264324
0.0259616
0.0255298
0.0250553
0.0246164
0.0241422
0.0237013
0.0232316
0.0227936
0.0223325
0.0219019
0.0214533
0.0210342
0.0206017
0.020198
0.0197848
0.0193998
0.0190089
0.0186455
0.0182791
0.0179391
0.0175984
0.0172834
0.0169705
0.0166821
0.016398
0.0161369
0.0158827
0.0156504
0.0154269
0.0152235
0.0150304
0.014856
0.0146925
0.0145466
0.0144121
0.0142942
0.014188
0.0140978
0.0140195
0.0139556
0.0139034
0.0138643
0.0138382
0.0138256
0.0138213
0.0138268
0.0138495
0.0138781
0.0139225
0.013973
0.0140379
0.0141087
0.0141922
0.0142802
0.0143791
0.0144816
0.014593
0.014707
0.0148277
0.0149494
0.0150756
0.0152011
0.0153286
0.0154536
0.015578
0.0156978
0.0158149
0.0159254
0.0160313
0.0161297
0.016222
0.0163069
0.0163866
0.0164568
0.0165209
0.0165859
0.0166663
0.016783
0.0169774
0.0173047
0.0178419
0.0185808
0.0196304
0.0456546
0.0453899
0.0452768
0.045059
0.0449138
0.0446809
0.0444963
0.0442368
0.0440112
0.0437187
0.0434501
0.0431225
0.042811
0.0424473
0.0420935
0.0416926
0.0412971
0.0408591
0.0404231
0.0399485
0.0394735
0.0389635
0.0384518
0.0379084
0.0373627
0.0367887
0.0362119
0.0356107
0.0350069
0.0343826
0.0337565
0.0331137
0.0324708
0.0318146
0.0311608
0.0304976
0.0298397
0.0291758
0.0285136
0.0278499
0.0271919
0.0265364
0.0258902
0.0252503
0.0246227
0.0240045
0.0234012
0.02281
0.0222356
0.0216752
0.0211314
0.0206028
0.0200915
0.0195957
0.0191172
0.0186534
0.0182073
0.0177755
0.0173602
0.0169602
0.0165772
0.0162081
0.0158554
0.0155147
0.0151878
0.0148718
0.0145676
0.0142725
0.0139855
0.0137075
0.0134399
0.0131795
0.0129271
0.0126814
0.012441
0.0122065
0.0119752
0.0117492
0.0115248
0.0113051
0.0110862
0.0108718
0.0106582
0.0104496
0.0102426
0.0100421
0.00984348
0.00965121
0.00946322
0.00928509
0.00911674
0.00896517
0.00882798
0.00871979
0.00866619
0.00864965
0.00876576
0.00902533
0.00943211
0.00961199
0.0569506
0.0570256
0.0570596
0.0571318
0.0571722
0.0572223
0.0572475
0.0572597
0.0572631
0.0572414
0.057205
0.0571418
0.0570639
0.0569605
0.0568448
0.0566989
0.0565405
0.0563489
0.0561437
0.0559032
0.0556475
0.0553549
0.0550453
0.0546981
0.0543323
0.0539296
0.0535038
0.0530427
0.0525573
0.0520362
0.0514903
0.0509086
0.0503022
0.0496602
0.0489944
0.0482939
0.0475704
0.0468146
0.0460367
0.0452291
0.0444004
0.0435454
0.0426711
0.0417745
0.0408609
0.0399296
0.0389844
0.0380262
0.0370581
0.036082
0.0351022
0.0341197
0.0331387
0.0321601
0.0311881
0.0302236
0.0292712
0.028331
0.0274081
0.026501
0.0256148
0.0247441
0.0238936
0.0230618
0.0222534
0.0214662
0.0207043
0.0199656
0.0192544
0.0185659
0.0179011
0.0172584
0.016638
0.0160379
0.015458
0.0148962
0.0143517
0.0138227
0.013308
0.0128059
0.0123149
0.0118334
0.0113594
0.010892
0.0104289
0.00999044
0.00955932
0.00915879
0.00876616
0.00840443
0.00805295
0.00773478
0.00743131
0.00717032
0.00692384
0.00676527
0.00669416
0.00669237
0.00702345
0.00721284
0.0631046
0.0634808
0.0636476
0.0639756
0.0641914
0.0644974
0.0647316
0.0650122
0.0652498
0.0655049
0.0657346
0.0659658
0.0661813
0.0663887
0.0665847
0.0667659
0.0669374
0.0670894
0.0672319
0.067351
0.0674595
0.0675415
0.0676108
0.0676492
0.0676671
0.0676709
0.0676422
0.0675867
0.0675059
0.0673919
0.0672523
0.0670753
0.0668705
0.0666241
0.0663468
0.0660245
0.065667
0.0652628
0.0648262
0.0643422
0.0638214
0.0632521
0.0626385
0.0619794
0.0612715
0.0605186
0.0597158
0.0588679
0.0579711
0.0570297
0.056042
0.0550112
0.0539378
0.052824
0.0516722
0.0504837
0.0492627
0.0480096
0.0467301
0.0454238
0.0440979
0.0427557
0.0414019
0.0400387
0.0386712
0.037302
0.0359355
0.0345747
0.0332233
0.0318844
0.0305613
0.0292575
0.0279752
0.0267181
0.0254877
0.0242874
0.0231176
0.0219763
0.0208642
0.0197835
0.0187336
0.0177175
0.0167338
0.0157851
0.01487
0.0139891
0.0131386
0.0123163
0.011522
0.010755
0.0100153
0.00930253
0.00861846
0.00797063
0.00736661
0.00681648
0.00639973
0.00621011
0.00617094
0.0063569
0.0641765
0.0647002
0.0649337
0.0653812
0.0656828
0.0661083
0.0664458
0.0668531
0.0672103
0.0676037
0.0679707
0.0683538
0.0687242
0.0690984
0.0694674
0.069833
0.0701969
0.0705528
0.0709084
0.0712531
0.0715971
0.071928
0.0722571
0.0725713
0.0728824
0.0731785
0.0734661
0.0737386
0.0740015
0.0742473
0.0744836
0.0747013
0.0749069
0.0750909
0.07526
0.0754043
0.0755298
0.0756275
0.0757036
0.0757417
0.0757569
0.0757556
0.0756952
0.0756162
0.0754839
0.0753191
0.0751018
0.0748417
0.074527
0.0741611
0.073737
0.0732546
0.0727104
0.0721029
0.0714315
0.0706915
0.0698849
0.0690095
0.068065
0.0670514
0.0659678
0.0648173
0.0636009
0.0623208
0.0609762
0.0595731
0.0581092
0.0565928
0.0550208
0.0534031
0.0517365
0.0500314
0.0482849
0.046507
0.044695
0.0428585
0.0409954
0.0391204
0.0372306
0.0353352
0.0334325
0.0315306
0.0296295
0.0277373
0.0258562
0.0239946
0.0221583
0.0203546
0.0185945
0.0168663
0.0151968
0.0135822
0.0120516
0.0106077
0.00929694
0.00809095
0.00708717
0.00635374
0.00602987
0.00600199
0.0614308
0.0619644
0.062207
0.0626531
0.062965
0.0633909
0.0637406
0.0641542
0.0645274
0.0649348
0.0653235
0.0657287
0.0661279
0.0665332
0.0669395
0.067346
0.0677573
0.0681654
0.0685797
0.0689891
0.0694049
0.0698147
0.0702301
0.0706388
0.0710516
0.0714563
0.071862
0.0722577
0.0726494
0.0730256
0.0733989
0.0737681
0.0741353
0.0744965
0.074856
0.0752092
0.0755612
0.0759075
0.0762459
0.0765753
0.0768973
0.0772076
0.0775038
0.0777901
0.0780579
0.0783125
0.0785455
0.0787606
0.0789514
0.0791188
0.0792586
0.0793697
0.0794455
0.0794818
0.0794934
0.0794658
0.0793873
0.0792745
0.0791026
0.0788862
0.0786021
0.0782622
0.0778447
0.0773579
0.0767818
0.0761234
0.0753703
0.0745277
0.0735793
0.0725331
0.0713738
0.0701101
0.0687318
0.0672478
0.0656517
0.0639536
0.0621504
0.0602508
0.0582545
0.0561676
0.0539911
0.0517272
0.0493766
0.0469373
0.0444088
0.0417865
0.0390731
0.0362625
0.0333665
0.0304002
0.027376
0.0243065
0.0212289
0.0181826
0.0152916
0.0125362
0.0101444
0.0080922
0.00662825
0.00592575
0.0561076
0.0565658
0.0567751
0.0571515
0.0574094
0.0577718
0.0580592
0.0584127
0.0587209
0.0590701
0.059394
0.0597421
0.0600782
0.0604276
0.0607734
0.0611255
0.061479
0.0618346
0.0621943
0.0625535
0.0629181
0.0632805
0.0636483
0.064013
0.0643826
0.0647485
0.0651182
0.0654839
0.0658528
0.0662189
0.0665905
0.0669622
0.067339
0.0677166
0.0680987
0.0684809
0.0688658
0.0692491
0.0696367
0.0700244
0.0704149
0.0708052
0.071197
0.0715886
0.0719796
0.0723697
0.0727572
0.0731422
0.0735246
0.0739025
0.0742732
0.0746332
0.0749793
0.0753057
0.0756075
0.0758686
0.0760866
0.0763035
0.0764804
0.0766442
0.0767675
0.0768709
0.0769355
0.0769741
0.0769894
0.07699
0.0769172
0.076817
0.0766476
0.0764334
0.0761472
0.0758015
0.0753695
0.0748599
0.0742458
0.0735282
0.0726811
0.0716985
0.0705561
0.0692432
0.0677393
0.0660332
0.0641106
0.0619631
0.0595834
0.0569688
0.0541187
0.0510325
0.0477131
0.0441696
0.0403647
0.0362793
0.0319066
0.0272709
0.0225435
0.0182372
0.0144583
0.0116285
0.00943704
0.00727778
0.0494849
0.0497949
0.0499361
0.0501926
0.0503508
0.0506046
0.0507796
0.0510274
0.0512187
0.0514617
0.0516672
0.0519074
0.0521245
0.0523638
0.0525904
0.0528302
0.0530642
0.0533053
0.053545
0.0537878
0.0540317
0.054276
0.0545227
0.0547683
0.0550168
0.0552636
0.0555135
0.0557619
0.0560141
0.0562662
0.0565233
0.0567812
0.0570443
0.0573088
0.0575781
0.0578492
0.0581249
0.0584032
0.0586872
0.0589739
0.0592664
0.0595623
0.0598641
0.0601702
0.0604824
0.0608002
0.0611246
0.061455
0.0617871
0.062122
0.0624563
0.0627893
0.0631188
0.0634427
0.0637599
0.0640695
0.0643779
0.0646915
0.0649973
0.0653064
0.0655991
0.0658826
0.0661311
0.0663403
0.0665323
0.0666987
0.0668462
0.0669752
0.0670735
0.0671406
0.0671701
0.0671762
0.0671126
0.0669989
0.066804
0.0665321
0.0661552
0.0656695
0.0650502
0.0642879
0.0633618
0.06226
0.0609663
0.0594699
0.0577608
0.0558346
0.0536548
0.0512048
0.0483872
0.0450818
0.041298
0.0369218
0.0322131
0.0273141
0.0224557
0.0180463
0.0146166
0.0122323
0.0107403
0.00922559
0.0304567
0.0305036
0.0305107
0.0305123
0.0304993
0.0304936
0.030474
0.0304649
0.0304425
0.0304315
0.0304073
0.0303942
0.030369
0.0303531
0.0303272
0.030308
0.0302811
0.0302585
0.0302303
0.0302042
0.0301742
0.0301446
0.0301123
0.0300793
0.0300445
0.0300084
0.0299711
0.0299321
0.0298925
0.0298511
0.0298094
0.0297656
0.0297213
0.0296749
0.0296278
0.0295787
0.0295288
0.029477
0.0294246
0.02937
0.0293147
0.0292572
0.0291988
0.0291381
0.0290761
0.0290117
0.0289449
0.0288747
0.0288004
0.0287219
0.028638
0.0285489
0.0284537
0.0283525
0.0282456
0.028133
0.028016
0.0278923
0.027759
0.0276162
0.0274568
0.0272811
0.0270791
0.0268514
0.0266133
0.026361
0.0260989
0.0258241
0.0255356
0.0252338
0.024917
0.0245848
0.0242279
0.023854
0.0234513
0.0230258
0.0225678
0.022081
0.0215587
0.0210026
0.0204091
0.0197788
0.0191104
0.0184039
0.0176592
0.0168716
0.0160216
0.0150738
0.0139583
0.012656
0.0110902
0.0091644
0.00698706
0.00490001
0.00301781
0.00232154
0.00260545
0.00527627
0.00862189
0.00984672
0.00947046
0.00467409
0.0040292
0.00390103
0.00387307
0.00389696
0.00381628
0.00377867
0.00376383
0.0037609
0.00378414
0.00385372
0.00412561
0.00470429
0.00546167
0.00654423
0.00691809
0.00690309
0.0057778
0.00341574
0.0077739
0.00467984
0.00428965
0.00419007
0.00416564
0.0040444
0.00396481
0.00393016
0.00391839
0.00392114
0.00397306
0.00415652
0.00454775
0.00512791
0.00620189
0.00686176
0.00700119
0.00676436
0.00520763
0.00279674
0.00621126
0.00478425
0.00460412
0.00453981
0.00436766
0.00426598
0.00419836
0.0041712
0.00416304
0.00417481
0.00429946
0.00455754
0.00503709
0.00597067
0.00678725
0.00704659
0.00704011
0.00648646
0.00458454
0.00216627
0.00579422
0.00511532
0.00503328
0.00479397
0.00463628
0.00452049
0.00446268
0.00443795
0.00443506
0.00453382
0.00475565
0.00518152
0.00603833
0.00685358
0.00718612
0.00724804
0.00698266
0.00604288
0.00380666
0.00155833
0.00591733
0.00548141
0.00534319
0.0050534
0.00493845
0.00486501
0.00484659
0.00487861
0.00499536
0.0052725
0.00566654
0.00648435
0.00716894
0.00747965
0.00756807
0.00739994
0.00679175
0.00542658
0.00297058
0.00102489
0.00628466
0.00593483
0.00580095
0.00561555
0.00558297
0.00558923
0.00571414
0.00594088
0.00635443
0.00686706
0.0074909
0.00797675
0.00818775
0.00823277
0.00796035
0.00733569
0.00638851
0.00462513
0.00192205
0.000559904
0.00721626
0.00708919
0.00707273
0.00709725
0.00736974
0.00768633
0.00822868
0.00891624
0.00958596
0.0097907
0.00985858
0.00973649
0.00940903
0.00884526
0.00803786
0.00709801
0.00568703
0.00352405
0.00116279
0.000245494
0.0108578
0.0112896
0.0117897
0.0124366
0.0133841
0.0143706
0.0148509
0.0150032
0.0140009
0.0133926
0.0123277
0.011534
0.0103248
0.00920027
0.00786802
0.00647786
0.00449196
0.00227019
0.00065005
9.27035e-05
0.0252698
0.025745
0.0259461
0.0259461
0.0252628
0.0238959
0.0222514
0.0199792
0.0182525
0.016299
0.0145181
0.0126933
0.0107752
0.00896941
0.00712322
0.00507633
0.00301749
0.00138677
0.000426124
4.91062e-05
0.0411912
0.0394129
0.0374485
0.034662
0.0321337
0.028555
0.0259238
0.0227607
0.0203718
0.0174953
0.0152373
0.0125031
0.0101778
0.00740613
0.00525156
0.00325685
0.00202483
0.00102882
0.000422447
7.97065e-05
0.0379726
0.0364336
0.0348564
0.0323799
0.0302319
0.0269326
0.0245193
0.0216213
0.0194577
0.0168089
0.0148151
0.0122282
0.0102681
0.00749996
0.00547489
0.0032435
0.00197477
0.00090366
0.000340586
6.63882e-05
0.0200221
0.0209536
0.0214718
0.0217304
0.021817
0.0211164
0.0199091
0.0180567
0.0167541
0.0149704
0.0137721
0.0119534
0.0106181
0.00879551
0.0072164
0.00516258
0.0029847
0.00121218
0.000326199
4.59728e-05
0.00945453
0.00965047
0.0100566
0.0105207
0.0113092
0.0122199
0.0130133
0.0133257
0.0131573
0.0122322
0.0117863
0.0108597
0.010033
0.00898031
0.00782205
0.00649201
0.00455254
0.00223469
0.000572497
5.44507e-05
0.00684352
0.00666091
0.00660564
0.00657885
0.00674869
0.00698763
0.00741239
0.00800226
0.00878059
0.00915264
0.00933126
0.00939982
0.00914488
0.00870703
0.00795
0.00707536
0.00569394
0.00354566
0.00108367
0.000135341
0.00610292
0.00576699
0.00563538
0.00543289
0.0053827
0.0053687
0.00544917
0.00562168
0.00598053
0.00643327
0.00712191
0.00772115
0.0080095
0.0080887
0.00792389
0.00731076
0.00638779
0.00466205
0.00192537
0.000441015
0.00578413
0.00538148
0.00525178
0.00496731
0.00485035
0.00476812
0.00474219
0.00475339
0.00485177
0.00509209
0.00547011
0.00623896
0.0070245
0.0073856
0.00748935
0.00738729
0.00679628
0.00545939
0.00301752
0.000943229
0.00567963
0.00502039
0.0049479
0.00474213
0.00458384
0.00447233
0.00440691
0.00437721
0.00436844
0.00445007
0.00466294
0.00506067
0.00587847
0.00677391
0.00715114
0.00722267
0.00698982
0.00607614
0.00386551
0.00152074
0.00617751
0.0047306
0.00453223
0.00446438
0.00432294
0.00421658
0.00415329
0.004127
0.00411917
0.00412798
0.00424058
0.00449283
0.00495304
0.00585237
0.00674006
0.00703727
0.00704389
0.00651586
0.00464569
0.0021643
0.00780283
0.00465268
0.00425711
0.00414917
0.00411637
0.00402013
0.0039337
0.00389704
0.00388522
0.00388837
0.00393759
0.0041057
0.00449567
0.00507675
0.00613169
0.00684429
0.00700196
0.00678767
0.00526138
0.00282221
0.00947246
0.00465124
0.00399396
0.00386898
0.00383996
0.00385402
0.00379435
0.00375278
0.00373816
0.00373533
0.00376035
0.00382601
0.00407405
0.00463662
0.00541755
0.00651967
0.0069184
0.00692023
0.00583119
0.00345416
0.00397117
0.00375019
0.00374679
0.0037468
0.00374652
0.00374628
0.00374612
0.00374604
0.003746
0.00374598
0.00374598
0.003746
0.00374604
0.00374612
0.00374628
0.00374652
0.0037468
0.00374679
0.00375019
0.00397117
0.00441489
0.00375346
0.00374141
0.00374096
0.00374056
0.00374012
0.00373987
0.00373975
0.00373969
0.00373966
0.00373966
0.00373969
0.00373975
0.00373987
0.00374012
0.00374056
0.00374096
0.00374141
0.00375346
0.00441489
0.00485941
0.00376059
0.00373287
0.00373264
0.00373284
0.00373273
0.00373256
0.00373242
0.00373235
0.00373231
0.00373231
0.00373235
0.00373242
0.00373256
0.00373273
0.00373284
0.00373264
0.00373287
0.00376059
0.00485941
0.00530179
0.00377206
0.0037243
0.00372396
0.00372492
0.00372524
0.00372525
0.00372519
0.00372514
0.00372512
0.00372512
0.00372514
0.00372519
0.00372525
0.00372524
0.00372492
0.00372396
0.0037243
0.00377206
0.00530179
0.00573922
0.00378544
0.00371551
0.00371483
0.00371665
0.00371758
0.00371789
0.00371795
0.00371795
0.00371795
0.00371795
0.00371795
0.00371795
0.00371789
0.00371758
0.00371665
0.00371483
0.00371551
0.00378544
0.00573922
0.00617058
0.00379767
0.00370577
0.0037051
0.003708
0.00370969
0.00371043
0.0037107
0.00371078
0.0037108
0.0037108
0.00371078
0.0037107
0.00371043
0.00370969
0.003708
0.0037051
0.00370577
0.00379767
0.00617058
0.00659188
0.00380847
0.00369498
0.00369474
0.00369894
0.00370155
0.00370284
0.0037034
0.00370361
0.00370368
0.00370368
0.00370361
0.0037034
0.00370284
0.00370155
0.00369894
0.00369474
0.00369498
0.00380847
0.00659188
0.00700085
0.00381671
0.00368272
0.00368362
0.00368941
0.00369311
0.00369508
0.00369602
0.00369642
0.00369656
0.00369656
0.00369642
0.00369602
0.00369508
0.00369311
0.00368941
0.00368362
0.00368272
0.00381671
0.00700085
0.00739334
0.00382334
0.00366915
0.00367174
0.00367942
0.00368437
0.00368714
0.00368854
0.00368919
0.00368943
0.00368943
0.00368919
0.00368854
0.00368714
0.00368437
0.00367942
0.00367174
0.00366915
0.00382334
0.00739334
0.00776767
0.00382735
0.00365405
0.00365903
0.00366893
0.00367532
0.00367898
0.00368095
0.0036819
0.00368228
0.00368228
0.0036819
0.00368095
0.00367898
0.00367532
0.00366893
0.00365903
0.00365405
0.00382735
0.00776767
0.00812025
0.00383021
0.00363764
0.00364552
0.00365794
0.00366592
0.00367061
0.00367321
0.00367453
0.00367507
0.00367507
0.00367453
0.00367321
0.00367061
0.00366592
0.00365794
0.00364552
0.00363764
0.00383021
0.00812025
0.00845035
0.00383068
0.00361989
0.00363122
0.00364645
0.0036562
0.00366201
0.00366531
0.00366705
0.00366779
0.00366779
0.00366705
0.00366531
0.00366201
0.0036562
0.00364645
0.00363121
0.00361989
0.00383068
0.00845035
0.00875524
0.00383018
0.0036009
0.00361613
0.00363446
0.00364613
0.00365316
0.00365725
0.00365946
0.00366041
0.00366041
0.00365946
0.00365725
0.00365316
0.00364613
0.00363446
0.00361613
0.0036009
0.00383018
0.00875523
0.00903544
0.00382886
0.00358085
0.00360032
0.00362199
0.00363573
0.00364408
0.00364901
0.00365173
0.00365292
0.00365292
0.00365173
0.00364901
0.00364408
0.00363573
0.00362199
0.00360032
0.00358085
0.00382886
0.00903543
0.00928895
0.00382648
0.00355981
0.0035838
0.00360904
0.003625
0.00363475
0.00364059
0.00364385
0.00364531
0.00364531
0.00364385
0.00364059
0.00363475
0.003625
0.00360904
0.0035838
0.00355981
0.00382648
0.00928894
0.00951739
0.00382339
0.00353793
0.00356664
0.00359565
0.00361394
0.00362518
0.00363197
0.00363582
0.00363755
0.00363755
0.00363582
0.00363197
0.00362518
0.00361394
0.00359565
0.00356664
0.00353793
0.0038234
0.00951738
0.00971929
0.00382011
0.00351531
0.00354885
0.00358181
0.00360255
0.00361535
0.00362316
0.00362762
0.00362964
0.00362964
0.00362762
0.00362316
0.00361535
0.00360255
0.00358181
0.00354885
0.00351531
0.00382011
0.00971928
0.00989731
0.00381662
0.00349215
0.00353055
0.00356757
0.00359087
0.00360529
0.00361414
0.00361924
0.00362157
0.00362157
0.00361924
0.00361414
0.00360529
0.00359087
0.00356757
0.00353055
0.00349216
0.00381662
0.0098973
0.0100502
0.00381347
0.0034685
0.0035117
0.00355293
0.00357888
0.00359499
0.00360492
0.00361068
0.00361332
0.00361332
0.00361068
0.00360492
0.00359499
0.00357888
0.00355293
0.0035117
0.0034685
0.00381348
0.0100502
0.0101815
0.00381057
0.00344462
0.00349247
0.00353795
0.0035666
0.00358445
0.0035955
0.00360193
0.0036049
0.0036049
0.00360193
0.0035955
0.00358445
0.0035666
0.00353795
0.00349247
0.00344462
0.00381057
0.0101815
0.0102898
0.00380853
0.00342046
0.00347279
0.0035226
0.00355404
0.00357367
0.00358587
0.003593
0.0035963
0.0035963
0.003593
0.00358587
0.00357367
0.00355404
0.0035226
0.00347279
0.00342046
0.00380853
0.0102897
0.0103794
0.00380713
0.00339643
0.00345287
0.00350698
0.00354123
0.00356267
0.00357603
0.00358387
0.00358751
0.00358751
0.00358387
0.00357603
0.00356267
0.00354123
0.00350698
0.00345287
0.00339643
0.00380714
0.0103794
0.0104486
0.00380736
0.0033723
0.00343259
0.00349103
0.00352816
0.00355145
0.003566
0.00357455
0.00357853
0.00357853
0.00357455
0.003566
0.00355145
0.00352816