/*--------------------------------*- C++ -*----------------------------------*\
| =========                 |                                                 |
| \\      /  F ield         | OpenFOAM: The Open Source CFD Toolbox           |
|  \\    /   O peration     | Version:  2.1.0                                 |
|   \\  /    A nd           | Web:      www.OpenFOAM.org                      |
|    \\/     M anipulation  |                                                 |
\*---------------------------------------------------------------------------*/
FoamFile
{
    version     2.0;
    format      ascii;
    class       volScalarField;
    location    "0.32";
    object      nut;
}
// * * * * * * * * * * * * * * * * * * * * * * * * * * * * * * * * * * * * * //

dimensions      [0 2 -1 0 0 0 0];

internalField   nonuniform List<scalar> 
6400
(
7.09958e-06
7.12761e-06
7.14127e-06
7.16068e-06
7.17825e-06
7.19842e-06
7.21719e-06
7.23743e-06
7.25695e-06
7.27706e-06
7.29726e-06
7.31805e-06
7.33846e-06
7.35939e-06
7.38003e-06
7.40127e-06
7.42237e-06
7.44392e-06
7.46555e-06
7.48752e-06
7.5098e-06
7.53231e-06
7.55534e-06
7.57852e-06
7.60235e-06
7.62631e-06
7.65101e-06
7.67586e-06
7.70151e-06
7.72736e-06
7.75407e-06
7.78102e-06
7.80887e-06
7.83703e-06
7.86609e-06
7.89554e-06
7.92584e-06
7.95658e-06
7.98804e-06
8.01992e-06
8.05241e-06
8.08523e-06
8.1185e-06
8.15194e-06
8.18563e-06
8.21929e-06
8.25299e-06
8.28644e-06
8.31971e-06
8.35248e-06
8.38478e-06
8.41603e-06
8.44569e-06
8.4733e-06
8.49928e-06
8.52629e-06
8.55211e-06
8.57849e-06
8.60409e-06
8.62998e-06
8.65616e-06
8.6821e-06
8.70869e-06
8.73484e-06
8.76139e-06
8.78755e-06
8.81398e-06
8.83974e-06
8.86395e-06
8.88803e-06
8.91002e-06
8.9311e-06
8.95033e-06
8.96803e-06
8.98449e-06
8.99984e-06
9.0153e-06
9.03159e-06
9.05086e-06
9.07482e-06
9.10618e-06
9.14645e-06
9.19486e-06
9.24058e-06
9.29354e-06
9.35786e-06
9.42784e-06
9.49496e-06
9.53625e-06
9.50996e-06
9.33119e-06
8.8395e-06
7.79345e-06
6.00063e-06
3.56183e-06
2.31117e-06
2.40351e-06
3.77909e-06
3.87492e-06
4.18166e-06
7.6032e-05
7.64935e-05
7.66134e-05
7.69005e-05
7.70261e-05
7.72642e-05
7.74028e-05
7.76082e-05
7.77564e-05
7.79386e-05
7.80908e-05
7.82549e-05
7.84058e-05
7.85551e-05
7.87009e-05
7.8837e-05
7.89743e-05
7.90978e-05
7.92248e-05
7.93366e-05
7.94529e-05
7.95542e-05
7.96606e-05
7.97531e-05
7.9849e-05
7.99326e-05
8.00179e-05
8.00918e-05
8.01657e-05
8.02289e-05
8.02907e-05
8.03419e-05
8.03904e-05
8.04283e-05
8.04617e-05
8.04843e-05
8.05005e-05
8.05063e-05
8.05046e-05
8.04906e-05
8.04663e-05
8.04276e-05
8.03755e-05
8.03056e-05
8.02184e-05
8.01091e-05
7.99775e-05
7.98188e-05
7.96323e-05
7.94135e-05
7.91637e-05
7.88874e-05
7.8575e-05
7.81675e-05
7.7522e-05
7.68521e-05
7.61365e-05
7.5392e-05
7.46015e-05
7.37732e-05
7.29126e-05
7.20103e-05
7.10767e-05
7.01009e-05
6.90896e-05
6.8031e-05
6.69351e-05
6.58039e-05
6.46065e-05
6.33673e-05
6.2064e-05
6.07059e-05
5.92815e-05
5.77928e-05
5.62353e-05
5.4608e-05
5.29111e-05
5.11444e-05
4.93114e-05
4.74145e-05
4.54607e-05
4.34571e-05
4.14163e-05
3.93331e-05
3.71788e-05
3.49476e-05
3.26247e-05
3.0201e-05
2.76601e-05
2.50027e-05
2.22445e-05
1.9428e-05
1.66325e-05
1.39942e-05
1.14944e-05
9.22689e-06
7.48707e-06
6.28931e-06
5.67276e-06
6.86966e-06
0.000116184
0.000116432
0.000116531
0.000116625
0.000116708
0.000116756
0.000116825
0.000116839
0.000116891
0.000116877
0.000116905
0.000116866
0.000116867
0.000116802
0.000116772
0.000116679
0.000116614
0.00011649
0.000116386
0.000116229
0.000116085
0.000115895
0.000115714
0.000115497
0.000115282
0.000115037
0.00011479
0.000114514
0.000114232
0.000113923
0.000113606
0.000113263
0.000112908
0.000112527
0.000112133
0.000111712
0.000111275
0.00011081
0.000110324
0.000109808
0.000109269
0.000108697
0.000108097
0.000107462
0.000106793
0.000106083
0.000105333
0.000104534
0.000103685
0.000102775
0.000101531
0.00010007
9.85675e-05
9.70363e-05
9.54719e-05
9.38819e-05
9.22551e-05
9.06085e-05
8.89271e-05
8.72267e-05
8.55087e-05
8.37384e-05
8.19504e-05
8.0124e-05
7.8273e-05
7.63905e-05
7.44819e-05
7.2546e-05
7.05835e-05
6.85956e-05
6.6579e-05
6.45351e-05
6.24603e-05
6.03542e-05
5.82146e-05
5.60401e-05
5.38303e-05
5.15845e-05
4.93047e-05
4.69925e-05
4.46534e-05
4.22923e-05
3.99176e-05
3.75371e-05
3.51744e-05
3.28408e-05
3.05511e-05
2.83149e-05
2.61404e-05
2.40303e-05
2.19643e-05
1.99553e-05
1.79864e-05
1.59619e-05
1.39288e-05
1.19215e-05
1.0128e-05
8.61561e-06
8.11962e-06
1.13196e-05
0.000137878
0.000137551
0.000137424
0.000137111
0.000136976
0.000136636
0.000136468
0.000136105
0.000135895
0.000135512
0.000135256
0.000134851
0.000134548
0.000134118
0.000133767
0.000133309
0.000132909
0.000132418
0.000131967
0.000131436
0.000130924
0.000130338
0.000129474
0.000128477
0.00012746
0.000126412
0.000125348
0.000124254
0.000123144
0.000122003
0.000120845
0.000119656
0.000118449
0.000117211
0.000115953
0.000114665
0.000113356
0.000112016
0.000110653
0.00010926
0.000107843
0.000106396
0.000104926
0.000103424
0.0001019
0.000100344
9.87671e-05
9.71582e-05
9.55227e-05
9.38764e-05
9.22105e-05
9.05242e-05
8.88192e-05
8.70998e-05
8.53608e-05
8.36071e-05
8.18279e-05
8.00322e-05
7.82081e-05
7.63654e-05
7.45003e-05
7.26158e-05
7.07127e-05
6.87911e-05
6.68534e-05
6.49005e-05
6.29355e-05
6.09611e-05
5.89808e-05
5.6999e-05
5.50191e-05
5.30474e-05
5.10877e-05
4.91464e-05
4.72274e-05
4.53365e-05
4.34771e-05
4.16532e-05
3.98666e-05
3.81185e-05
3.64084e-05
3.47344e-05
3.30882e-05
3.14677e-05
2.98828e-05
2.82993e-05
2.67265e-05
2.51549e-05
2.35782e-05
2.19889e-05
2.03837e-05
1.87574e-05
1.71021e-05
1.5396e-05
1.36504e-05
1.19528e-05
1.04949e-05
9.76874e-06
1.19116e-05
1.20591e-05
0.000138036
0.000138002
0.000137702
0.000137472
0.000136709
0.000136071
0.000135169
0.000134354
0.000133398
0.000132485
0.000131495
0.000130512
0.000129489
0.000128451
0.000127391
0.000126302
0.0001252
0.000124064
0.000122917
0.000121734
0.000120538
0.000119308
0.000118076
0.000116812
0.000115538
0.000114236
0.000112924
0.000111587
0.000110239
0.000108865
0.000107482
0.000106073
0.000104653
0.00010321
0.000101751
0.000100269
9.87846e-05
9.72785e-05
9.57538e-05
9.42126e-05
9.26586e-05
9.10864e-05
8.95046e-05
8.79054e-05
8.62991e-05
8.46773e-05
8.30513e-05
8.14129e-05
7.97742e-05
7.8127e-05
7.64807e-05
7.4829e-05
7.31748e-05
7.15152e-05
6.9857e-05
6.81998e-05
6.65458e-05
6.48972e-05
6.32544e-05
6.16217e-05
5.99989e-05
5.83903e-05
5.67965e-05
5.52205e-05
5.3663e-05
5.21257e-05
5.06095e-05
4.9115e-05
4.76426e-05
4.61918e-05
4.47576e-05
4.33483e-05
4.1963e-05
4.05845e-05
3.92314e-05
3.78836e-05
3.65512e-05
3.52201e-05
3.38951e-05
3.25645e-05
3.12316e-05
2.98888e-05
2.85382e-05
2.71812e-05
2.58169e-05
2.44507e-05
2.30885e-05
2.17273e-05
2.03836e-05
1.90585e-05
1.77669e-05
1.65102e-05
1.53078e-05
1.4148e-05
1.30799e-05
1.22646e-05
1.20835e-05
1.3748e-05
1.37851e-05
1.41187e-05
0.00012426
0.000123518
0.000123087
0.000122473
0.000121571
0.000120637
0.00011958
0.00011851
0.000117392
0.000116256
0.000115107
0.000113931
0.000112759
0.000111554
0.000110362
0.000109136
0.000107919
0.00010668
0.000105448
0.000104204
0.000102951
0.000101684
0.000100419
9.91292e-05
9.78374e-05
9.65288e-05
9.52202e-05
9.38925e-05
9.25655e-05
9.12197e-05
8.98744e-05
8.85119e-05
8.71498e-05
8.57728e-05
8.43968e-05
8.30094e-05
8.16239e-05
8.02291e-05
7.88377e-05
7.74415e-05
7.60501e-05
7.46568e-05
7.32709e-05
7.18858e-05
7.05106e-05
6.91383e-05
6.77785e-05
6.64233e-05
6.50824e-05
6.3747e-05
6.2426e-05
6.11119e-05
5.98126e-05
5.85213e-05
5.72472e-05
5.59803e-05
5.47309e-05
5.34984e-05
5.2272e-05
5.10638e-05
4.98627e-05
4.86757e-05
4.74963e-05
4.63282e-05
4.51668e-05
4.40135e-05
4.28658e-05
4.17245e-05
4.05882e-05
3.94572e-05
3.83315e-05
3.7215e-05
3.61042e-05
3.50015e-05
3.39049e-05
3.28167e-05
3.1738e-05
3.06709e-05
2.96198e-05
2.85816e-05
2.7561e-05
2.65571e-05
2.55739e-05
2.46098e-05
2.36693e-05
2.27482e-05
2.18482e-05
2.09706e-05
2.01273e-05
1.93194e-05
1.85629e-05
1.78664e-05
1.72576e-05
1.67757e-05
1.65444e-05
1.66319e-05
1.60591e-05
1.58161e-05
1.57908e-05
1.32028e-05
0.000108493
0.000107203
0.000106669
0.000105743
0.000104854
0.000103744
0.000102716
0.00010154
0.000100454
9.92586e-05
9.8148e-05
9.69497e-05
9.58274e-05
9.46329e-05
9.35059e-05
9.2319e-05
9.11926e-05
9.00175e-05
8.88987e-05
8.77357e-05
8.66151e-05
8.54657e-05
8.43511e-05
8.32124e-05
8.21053e-05
8.09799e-05
7.98821e-05
7.87694e-05
7.7681e-05
7.65809e-05
7.55023e-05
7.44146e-05
7.33458e-05
7.22702e-05
7.12112e-05
7.01475e-05
6.90981e-05
6.8043e-05
6.70025e-05
6.59641e-05
6.49349e-05
6.39079e-05
6.28896e-05
6.18747e-05
6.08671e-05
5.98633e-05
5.88664e-05
5.7873e-05
5.68872e-05
5.59043e-05
5.49296e-05
5.39587e-05
5.29978e-05
5.20438e-05
5.1095e-05
5.01509e-05
4.9216e-05
4.82884e-05
4.7368e-05
4.64586e-05
4.55579e-05
4.46711e-05
4.37965e-05
4.2938e-05
4.20923e-05
4.12678e-05
4.04611e-05
3.96759e-05
3.891e-05
3.8168e-05
3.74462e-05
3.67453e-05
3.60638e-05
3.54034e-05
3.47609e-05
3.41375e-05
3.3528e-05
3.2933e-05
3.22022e-05
3.12485e-05
3.03097e-05
2.93759e-05
2.84579e-05
2.75461e-05
2.66515e-05
2.57646e-05
2.48973e-05
2.4041e-05
2.32096e-05
2.2397e-05
2.16198e-05
2.08763e-05
2.0182e-05
1.95493e-05
1.89996e-05
1.86037e-05
1.83417e-05
1.82416e-05
1.89329e-05
1.49344e-05
9.7748e-05
9.59076e-05
9.53977e-05
9.42875e-05
9.35107e-05
9.23331e-05
9.1454e-05
9.02849e-05
8.93713e-05
8.82388e-05
8.73195e-05
8.62289e-05
8.53149e-05
8.42634e-05
8.33577e-05
8.23377e-05
8.1442e-05
8.04446e-05
7.95564e-05
7.8319e-05
7.71064e-05
7.58146e-05
7.46232e-05
7.33727e-05
7.22204e-05
7.10098e-05
6.99003e-05
6.87379e-05
6.76767e-05
6.65698e-05
6.55611e-05
6.4515e-05
6.35606e-05
6.25776e-05
6.1681e-05
6.07638e-05
5.99276e-05
5.90777e-05
5.83021e-05
5.75174e-05
5.67988e-05
5.60734e-05
5.54093e-05
5.47398e-05
5.41273e-05
5.3509e-05
5.29438e-05
5.23719e-05
5.18481e-05
5.13172e-05
5.08293e-05
5.03324e-05
4.98676e-05
4.93979e-05
4.89529e-05
4.85028e-05
4.80691e-05
4.76283e-05
4.71949e-05
4.67533e-05
4.63127e-05
4.58623e-05
4.53983e-05
4.49313e-05
4.44761e-05
4.39803e-05
4.35049e-05
4.30039e-05
4.25197e-05
4.20121e-05
4.15186e-05
4.10042e-05
4.05015e-05
3.998e-05
3.94677e-05
3.89384e-05
3.84158e-05
3.78778e-05
3.73438e-05
3.67922e-05
3.62372e-05
3.5659e-05
3.50712e-05
3.44557e-05
3.38236e-05
3.3158e-05
3.24689e-05
3.17425e-05
3.09895e-05
3.02013e-05
2.93949e-05
2.85728e-05
2.77636e-05
2.69881e-05
2.63412e-05
2.58622e-05
2.54781e-05
2.56218e-05
2.61458e-05
2.05096e-05
8.09252e-05
7.88198e-05
7.79674e-05
7.63793e-05
7.55231e-05
7.4023e-05
7.318e-05
7.17595e-05
7.0933e-05
6.95918e-05
6.87871e-05
6.75252e-05
6.67479e-05
6.55655e-05
6.48209e-05
6.37182e-05
6.30108e-05
6.1989e-05
6.1323e-05
6.03833e-05
5.97679e-05
5.89188e-05
5.83588e-05
5.75971e-05
5.70945e-05
5.64158e-05
5.59712e-05
5.53702e-05
5.49817e-05
5.44537e-05
5.41166e-05
5.36583e-05
5.33694e-05
5.29777e-05
5.27309e-05
5.24e-05
5.21887e-05
5.19114e-05
5.17318e-05
5.14989e-05
5.1346e-05
5.11485e-05
5.10178e-05
5.08484e-05
5.07353e-05
5.05847e-05
5.04764e-05
5.03548e-05
5.02631e-05
5.01546e-05
5.0036e-05
4.99461e-05
4.98459e-05
4.9766e-05
4.96784e-05
4.96079e-05
4.95318e-05
4.94732e-05
4.9412e-05
4.93677e-05
4.93224e-05
4.92932e-05
4.9264e-05
4.92498e-05
4.92364e-05
4.92374e-05
4.92441e-05
4.92601e-05
4.92837e-05
4.93153e-05
4.93557e-05
4.94021e-05
4.94576e-05
4.95179e-05
4.95869e-05
4.96591e-05
4.97384e-05
4.98184e-05
4.9903e-05
4.99851e-05
5.0067e-05
5.01404e-05
5.02063e-05
5.02548e-05
5.0285e-05
5.0285e-05
5.02513e-05
5.01718e-05
5.00413e-05
4.98491e-05
4.9592e-05
4.92662e-05
4.88783e-05
4.84396e-05
4.79779e-05
4.75737e-05
4.74273e-05
4.75142e-05
4.80368e-05
3.97853e-05
7.30477e-05
7.1211e-05
7.04758e-05
6.90947e-05
6.84082e-05
6.71031e-05
6.64632e-05
6.52398e-05
6.46467e-05
6.3509e-05
6.29634e-05
6.19136e-05
6.1416e-05
6.04551e-05
6.00056e-05
5.9133e-05
5.87315e-05
5.79457e-05
5.75913e-05
5.68895e-05
5.65808e-05
5.59587e-05
5.56926e-05
5.51452e-05
5.49182e-05
5.44397e-05
5.42479e-05
5.38358e-05
5.36702e-05
5.33264e-05
5.31736e-05
5.28897e-05
5.27497e-05
5.25397e-05
5.24055e-05
5.22567e-05
5.21304e-05
5.20018e-05
5.19091e-05
5.18104e-05
5.17481e-05
5.16717e-05
5.16335e-05
5.15824e-05
5.15672e-05
5.15427e-05
5.15492e-05
5.15505e-05
5.15781e-05
5.16037e-05
5.16517e-05
5.17045e-05
5.17758e-05
5.18556e-05
5.19511e-05
5.2058e-05
5.21786e-05
5.23126e-05
5.24583e-05
5.26192e-05
5.27907e-05
5.29787e-05
5.31779e-05
5.33946e-05
5.36227e-05
5.3869e-05
5.41271e-05
5.44037e-05
5.46931e-05
5.50011e-05
5.53232e-05
5.56644e-05
5.60214e-05
5.63982e-05
5.67927e-05
5.7208e-05
5.76431e-05
5.81006e-05
5.85804e-05
5.90848e-05
5.96145e-05
6.01716e-05
6.07578e-05
6.13753e-05
6.20267e-05
6.27146e-05
6.34443e-05
6.42185e-05
6.50435e-05
6.59239e-05
6.68671e-05
6.78791e-05
6.89691e-05
7.01442e-05
7.14114e-05
7.27647e-05
7.41643e-05
7.56366e-05
7.63563e-05
6.62011e-05
7.98796e-05
7.78845e-05
7.71108e-05
7.55738e-05
7.48041e-05
7.33529e-05
7.25932e-05
7.12306e-05
7.04891e-05
6.92176e-05
6.85028e-05
6.73247e-05
6.66434e-05
6.556e-05
6.49199e-05
6.39314e-05
6.33387e-05
6.24417e-05
6.19015e-05
6.10925e-05
6.06071e-05
5.98821e-05
5.94515e-05
5.88063e-05
5.84287e-05
5.78584e-05
5.75306e-05
5.70297e-05
5.67473e-05
5.63104e-05
5.60678e-05
5.56897e-05
5.54814e-05
5.51566e-05
5.49764e-05
5.46992e-05
5.45414e-05
5.43057e-05
5.41658e-05
5.39564e-05
5.38392e-05
5.36937e-05
5.35596e-05
5.34428e-05
5.33113e-05
5.32308e-05
5.31277e-05
5.30645e-05
5.2988e-05
5.29434e-05
5.28927e-05
5.28682e-05
5.2843e-05
5.284e-05
5.28409e-05
5.28597e-05
5.28855e-05
5.29308e-05
5.29829e-05
5.30553e-05
5.31336e-05
5.32321e-05
5.33377e-05
5.34648e-05
5.35985e-05
5.37544e-05
5.39173e-05
5.41025e-05
5.42954e-05
5.45096e-05
5.47324e-05
5.49763e-05
5.52301e-05
5.55049e-05
5.57907e-05
5.6098e-05
5.64182e-05
5.67605e-05
5.71183e-05
5.74992e-05
5.78986e-05
5.83232e-05
5.87696e-05
5.9244e-05
5.97444e-05
6.02764e-05
6.08387e-05
6.14358e-05
6.20681e-05
6.27402e-05
6.34616e-05
6.42374e-05
6.50774e-05
6.59927e-05
6.70023e-05
6.81272e-05
6.94133e-05
7.08311e-05
7.18935e-05
6.30241e-05
9.9778e-05
9.76625e-05
9.6787e-05
9.51311e-05
9.41758e-05
9.25931e-05
9.15676e-05
9.00462e-05
8.89642e-05
8.74985e-05
8.63744e-05
8.49668e-05
8.38168e-05
8.2453e-05
8.1293e-05
7.99742e-05
7.88383e-05
7.75594e-05
7.64552e-05
7.52244e-05
7.41594e-05
7.29837e-05
7.19645e-05
7.08495e-05
6.98819e-05
6.88321e-05
6.79198e-05
6.69387e-05
6.60851e-05
6.5177e-05
6.43842e-05
6.35488e-05
6.28189e-05
6.20555e-05
6.13892e-05
6.06954e-05
6.00901e-05
5.94618e-05
5.89147e-05
5.8348e-05
5.78548e-05
5.73447e-05
5.68986e-05
5.64382e-05
5.6029e-05
5.56111e-05
5.52326e-05
5.48489e-05
5.44946e-05
5.41364e-05
5.38e-05
5.34603e-05
5.31357e-05
5.27967e-05
5.24826e-05
5.2183e-05
5.18613e-05
5.15717e-05
5.12636e-05
5.09876e-05
5.07007e-05
5.04258e-05
5.01327e-05
4.98823e-05
4.96058e-05
4.93645e-05
4.91026e-05
4.88701e-05
4.86235e-05
4.84002e-05
4.81624e-05
4.79411e-05
4.77057e-05
4.7481e-05
4.72397e-05
4.70035e-05
4.67485e-05
4.64931e-05
4.62164e-05
4.59339e-05
4.56292e-05
4.53161e-05
4.49795e-05
4.46314e-05
4.42594e-05
4.38742e-05
4.34671e-05
4.30466e-05
4.26087e-05
4.21624e-05
4.16967e-05
4.12227e-05
4.07502e-05
4.03065e-05
3.99218e-05
3.96594e-05
3.96063e-05
3.98923e-05
4.05486e-05
3.42865e-05
0.000106863
0.000105466
0.000104839
0.000103798
0.000102913
0.000101761
0.000100757
9.9575e-05
9.8522e-05
9.7341e-05
9.62682e-05
9.51012e-05
9.40226e-05
9.28742e-05
9.17984e-05
9.06687e-05
8.96003e-05
8.84888e-05
8.74305e-05
8.63371e-05
8.52898e-05
8.42135e-05
8.31778e-05
8.21185e-05
8.10954e-05
8.00497e-05
7.90392e-05
7.80089e-05
7.70169e-05
7.59987e-05
7.50162e-05
7.40155e-05
7.30454e-05
7.2062e-05
7.11055e-05
7.01401e-05
6.91998e-05
6.82535e-05
6.73113e-05
6.6366e-05
6.54279e-05
6.44909e-05
6.35629e-05
6.26412e-05
6.17309e-05
6.083e-05
5.99448e-05
5.90734e-05
5.82207e-05
5.73856e-05
5.65694e-05
5.57739e-05
5.5e-05
5.42481e-05
5.35179e-05
5.2809e-05
5.21278e-05
5.14718e-05
5.07437e-05
4.99739e-05
4.92102e-05
4.8448e-05
4.76886e-05
4.69244e-05
4.61554e-05
4.53797e-05
4.4596e-05
4.38052e-05
4.29997e-05
4.21815e-05
4.13718e-05
4.05667e-05
3.97376e-05
3.89268e-05
3.80962e-05
3.72838e-05
3.64552e-05
3.56451e-05
3.48235e-05
3.4021e-05
3.32085e-05
3.24113e-05
3.16098e-05
3.08265e-05
3.00451e-05
2.92856e-05
2.85312e-05
2.77986e-05
2.70787e-05
2.6389e-05
2.57248e-05
2.51057e-05
2.45214e-05
2.40119e-05
2.36389e-05
2.3336e-05
2.33262e-05
2.36013e-05
2.4355e-05
1.89009e-05
0.000121042
0.000120057
0.000119557
0.000118779
0.000117862
0.000116827
0.000115747
0.000114587
0.00011344
0.00011223
0.000111026
0.000109776
0.000108534
0.000107261
0.000106
0.000104708
0.000103429
0.00010212
0.000100824
9.94987e-05
9.81872e-05
9.68484e-05
9.55229e-05
9.41737e-05
9.28386e-05
9.14839e-05
9.01394e-05
8.87819e-05
8.74337e-05
8.60739e-05
8.47243e-05
8.33661e-05
8.20197e-05
8.06662e-05
7.9326e-05
7.7981e-05
7.66506e-05
7.53195e-05
7.40063e-05
7.26952e-05
7.14003e-05
7.01091e-05
6.88309e-05
6.75574e-05
6.63015e-05
6.50505e-05
6.38083e-05
6.25752e-05
6.13497e-05
6.01335e-05
5.89262e-05
5.77283e-05
5.65392e-05
5.53593e-05
5.41886e-05
5.30276e-05
5.18767e-05
5.0738e-05
4.96123e-05
4.85011e-05
4.74064e-05
4.63225e-05
4.52491e-05
4.41871e-05
4.31423e-05
4.21119e-05
4.11023e-05
4.01113e-05
3.91501e-05
3.821e-05
3.72992e-05
3.64134e-05
3.55591e-05
3.47319e-05
3.3935e-05
3.31609e-05
3.24172e-05
3.16954e-05
3.10023e-05
3.03291e-05
2.96775e-05
2.90414e-05
2.84247e-05
2.78209e-05
2.68273e-05
2.58594e-05
2.48941e-05
2.39954e-05
2.31043e-05
2.22833e-05
2.14769e-05
2.07471e-05
2.00401e-05
1.9419e-05
1.88106e-05
1.84017e-05
1.81752e-05
1.79846e-05
1.87189e-05
1.44599e-05
0.00013741
0.000136926
0.000136569
0.000136102
0.000135203
0.000134332
0.000133248
0.000132195
0.000131037
0.000129886
0.000128679
0.000127465
0.00012622
0.000124957
0.000123675
0.000122368
0.00012105
0.000119702
0.000118348
0.000116963
0.000115574
0.000114154
0.000112731
0.000111277
0.000109813
0.000108351
0.000106866
0.00010537
0.000103868
0.000102352
0.000100835
9.92984e-05
9.77581e-05
9.61959e-05
9.4631e-05
9.30459e-05
9.14581e-05
8.98546e-05
8.82584e-05
8.66516e-05
8.5051e-05
8.3443e-05
8.18371e-05
8.02321e-05
7.86279e-05
7.70292e-05
7.54333e-05
7.38463e-05
7.22657e-05
7.06969e-05
6.91383e-05
6.75938e-05
6.60634e-05
6.45487e-05
6.30505e-05
6.15683e-05
6.0104e-05
5.86562e-05
5.7223e-05
5.58087e-05
5.44188e-05
5.30358e-05
5.16862e-05
5.0344e-05
4.90291e-05
4.77219e-05
4.6436e-05
4.51566e-05
4.38929e-05
4.26344e-05
4.13876e-05
4.01453e-05
3.89115e-05
3.76822e-05
3.64634e-05
3.5253e-05
3.4052e-05
3.28602e-05
3.16757e-05
3.05042e-05
2.93419e-05
2.81974e-05
2.70669e-05
2.59586e-05
2.48662e-05
2.37956e-05
2.27461e-05
2.17195e-05
2.07175e-05
1.97384e-05
1.88017e-05
1.78967e-05
1.70712e-05
1.63815e-05
1.5936e-05
1.61053e-05
1.6078e-05
1.58679e-05
1.58851e-05
1.31714e-05
0.000148717
0.000148991
0.000148772
0.000148678
0.00014795
0.000147378
0.000146488
0.00014571
0.000144759
0.000143867
0.000142877
0.000141907
0.000140879
0.000139846
0.000138776
0.000137686
0.000136571
0.000135428
0.000134265
0.000133069
0.000131857
0.000130609
0.000129346
0.000128047
0.000126732
0.000125385
0.000124016
0.000122619
0.000121201
0.000119757
0.000118303
0.000116818
0.000115319
0.000113793
0.000112255
0.00011069
0.000109112
0.000107508
0.000105893
0.000104244
0.000102587
0.000100931
9.92253e-05
9.7525e-05
9.57896e-05
9.40492e-05
9.22828e-05
9.05067e-05
8.87107e-05
8.69037e-05
8.50818e-05
8.325e-05
8.14087e-05
7.95615e-05
7.77116e-05
7.58575e-05
7.40066e-05
7.21541e-05
7.0302e-05
6.84522e-05
6.66072e-05
6.47717e-05
6.29497e-05
6.11432e-05
5.93546e-05
5.75885e-05
5.58447e-05
5.41282e-05
5.2437e-05
5.07765e-05
4.91433e-05
4.7542e-05
4.59678e-05
4.44187e-05
4.28957e-05
4.14096e-05
3.99266e-05
3.84765e-05
3.70304e-05
3.56028e-05
3.41721e-05
3.27457e-05
3.13076e-05
2.98618e-05
2.83959e-05
2.69147e-05
2.54169e-05
2.39021e-05
2.23817e-05
2.08517e-05
1.93293e-05
1.78092e-05
1.62946e-05
1.48475e-05
1.35063e-05
1.24458e-05
1.20873e-05
1.36278e-05
1.38513e-05
1.43412e-05
0.000142054
0.000141845
0.000141764
0.000141522
0.000141427
0.000141153
0.000141026
0.00014073
0.000140565
0.000140251
0.000140044
0.000139711
0.000139462
0.000139104
0.000138809
0.000138423
0.000138082
0.000137664
0.000137276
0.000136822
0.000136386
0.00013589
0.000135403
0.000134862
0.00013432
0.000133728
0.000133125
0.000132472
0.000131797
0.000130905
0.000129743
0.000128547
0.000127329
0.000126082
0.000124815
0.000123522
0.000122212
0.000120877
0.000119515
0.000118123
0.000116708
0.000115263
0.000113785
0.000112283
0.000110745
0.000109183
0.000107584
0.000105958
0.000104298
0.000102608
0.000100886
9.91339e-05
9.7347e-05
9.55248e-05
9.36891e-05
9.18255e-05
8.99313e-05
8.8022e-05
8.60785e-05
8.41227e-05
8.21365e-05
8.01379e-05
7.81108e-05
7.60695e-05
7.39981e-05
7.19073e-05
6.97913e-05
6.76604e-05
6.55067e-05
6.33437e-05
6.11649e-05
5.89842e-05
5.67995e-05
5.4624e-05
5.24584e-05
5.03157e-05
4.81977e-05
4.61153e-05
4.40708e-05
4.20711e-05
4.01175e-05
3.82117e-05
3.6352e-05
3.45345e-05
3.27438e-05
3.09812e-05
2.92627e-05
2.75184e-05
2.57939e-05
2.40406e-05
2.2273e-05
2.04489e-05
1.85578e-05
1.66063e-05
1.46659e-05
1.27256e-05
1.10627e-05
1.00869e-05
1.19795e-05
1.21338e-05
0.000117067
0.000117362
0.000117478
0.000117608
0.000117706
0.000117796
0.000117883
0.000117943
0.000118018
0.000118053
0.000118111
0.000118123
0.000118161
0.000118152
0.000118167
0.000118137
0.000118127
0.000118074
0.000118035
0.000117957
0.000117887
0.00011778
0.000117677
0.000117538
0.000117397
0.000117223
0.000117041
0.000116828
0.000116604
0.000116351
0.000116091
0.000115809
0.000115516
0.000115202
0.000114876
0.000114529
0.000114167
0.000113783
0.000113378
0.000112949
0.000112497
0.000112018
0.000111513
0.000110977
0.000110409
0.000109807
0.000109169
0.000108501
0.0001078
0.000107067
0.000106297
0.000105479
0.000104613
0.00010369
0.000102706
0.000101578
9.99434e-05
9.82803e-05
9.6548e-05
9.47874e-05
9.29694e-05
9.11237e-05
8.92313e-05
8.73145e-05
8.53745e-05
8.34229e-05
8.13996e-05
7.93599e-05
7.72655e-05
7.51476e-05
7.29849e-05
7.07958e-05
6.8562e-05
6.62985e-05
6.39893e-05
6.1644e-05
5.92499e-05
5.68127e-05
5.4324e-05
5.17883e-05
4.92032e-05
4.6575e-05
4.39092e-05
4.12163e-05
3.85094e-05
3.58066e-05
3.31297e-05
3.05005e-05
2.79454e-05
2.54877e-05
2.31035e-05
2.07997e-05
1.85676e-05
1.63158e-05
1.41413e-05
1.21419e-05
1.03239e-05
8.9273e-06
8.38246e-06
1.1545e-05
7.4871e-05
7.53403e-05
7.54295e-05
7.57295e-05
7.58306e-05
7.60799e-05
7.62017e-05
7.64181e-05
7.65572e-05
7.67514e-05
7.6902e-05
7.70808e-05
7.72376e-05
7.74051e-05
7.75637e-05
7.77222e-05
7.7879e-05
7.80295e-05
7.81816e-05
7.8324e-05
7.8469e-05
7.86027e-05
7.87384e-05
7.88623e-05
7.89871e-05
7.91001e-05
7.92131e-05
7.93151e-05
7.94163e-05
7.95083e-05
7.95996e-05
7.96823e-05
7.97626e-05
7.98341e-05
7.99012e-05
7.99585e-05
8.00091e-05
8.00486e-05
8.00839e-05
8.01085e-05
8.01266e-05
8.01341e-05
8.01336e-05
8.01224e-05
8.01018e-05
8.0071e-05
8.00306e-05
7.99797e-05
7.99114e-05
7.98267e-05
7.97199e-05
7.95895e-05
7.94323e-05
7.92445e-05
7.90246e-05
7.87702e-05
7.84885e-05
7.81895e-05
7.78545e-05
7.74972e-05
7.70943e-05
7.66538e-05
7.61481e-05
7.53207e-05
7.43707e-05
7.3357e-05
7.2291e-05
7.11767e-05
7.00023e-05
6.87692e-05
6.74722e-05
6.61276e-05
6.46915e-05
6.31872e-05
6.15896e-05
5.9909e-05
5.81273e-05
5.62503e-05
5.42675e-05
5.21832e-05
4.99944e-05
4.77066e-05
4.53239e-05
4.28551e-05
4.03103e-05
3.77046e-05
3.5033e-05
3.23079e-05
2.94981e-05
2.65737e-05
2.35915e-05
2.05303e-05
1.75474e-05
1.46637e-05
1.19667e-05
9.60333e-06
7.78424e-06
6.54681e-06
5.87575e-06
6.77378e-06
6.94353e-06
6.96391e-06
6.97667e-06
6.99365e-06
7.00918e-06
7.02778e-06
7.04412e-06
7.06372e-06
7.08084e-06
7.10126e-06
7.11917e-06
7.14026e-06
7.15909e-06
7.18068e-06
7.20052e-06
7.22258e-06
7.24346e-06
7.26601e-06
7.2879e-06
7.31101e-06
7.33389e-06
7.35764e-06
7.38151e-06
7.40602e-06
7.43091e-06
7.45632e-06
7.48234e-06
7.50885e-06
7.53613e-06
7.56391e-06
7.59257e-06
7.62175e-06
7.65187e-06
7.68255e-06
7.71424e-06
7.74659e-06
7.78002e-06
7.81425e-06
7.84969e-06
7.886e-06
7.92364e-06
7.96229e-06
8.00237e-06
8.04362e-06
8.08637e-06
8.13041e-06
8.17591e-06
8.22266e-06
8.27061e-06
8.31986e-06
8.37023e-06
8.42192e-06
8.47486e-06
8.52926e-06
8.58538e-06
8.64348e-06
8.704e-06
8.76652e-06
8.83034e-06
8.89566e-06
8.96048e-06
9.02513e-06
9.08658e-06
9.14499e-06
9.20585e-06
9.26817e-06
9.33373e-06
9.40201e-06
9.47317e-06
9.54787e-06
9.62623e-06
9.70881e-06
9.79279e-06
9.88203e-06
9.97268e-06
1.00682e-05
1.01655e-05
1.02672e-05
1.03715e-05
1.04803e-05
1.05931e-05
1.07116e-05
1.08366e-05
1.09697e-05
1.11125e-05
1.12638e-05
1.14107e-05
1.15222e-05
1.15252e-05
1.13583e-05
1.08656e-05
9.79157e-06
8.03916e-06
5.90112e-06
3.64476e-06
2.64771e-06
2.56153e-06
3.92154e-06
4.0208e-06
4.33264e-06
1.09381e-05
2.07649e-06
2.59961e-06
3.51695e-06
4.54822e-06
5.62284e-06
6.48495e-06
7.33338e-06
8.14631e-06
8.90261e-06
9.61852e-06
1.03307e-05
1.14364e-05
1.33029e-05
1.54383e-05
1.78363e-05
1.76006e-05
1.55552e-05
1.03079e-05
4.00315e-06
5.87585e-06
2.18551e-06
2.47493e-06
3.18396e-06
4.05552e-06
4.86192e-06
5.69026e-06
6.54904e-06
7.41243e-06
8.29614e-06
9.26521e-06
1.0353e-05
1.19961e-05
1.40578e-05
1.70016e-05
1.8304e-05
1.74878e-05
1.47297e-05
9.55263e-06
3.97751e-06
4.94322e-06
2.69477e-06
2.90041e-06
3.4154e-06
4.00954e-06
4.7151e-06
5.47924e-06
6.31344e-06
7.21841e-06
8.37927e-06
9.4923e-06
1.09864e-05
1.28934e-05
1.57702e-05
1.79877e-05
1.82891e-05
1.71527e-05
1.40221e-05
8.90098e-06
3.85634e-06
5.0547e-06
3.43881e-06
3.63739e-06
3.87506e-06
4.36757e-06
4.92735e-06
5.67101e-06
6.5774e-06
7.70709e-06
9.46715e-06
1.11718e-05
1.28971e-05
1.56614e-05
1.81568e-05
1.91538e-05
1.87892e-05
1.7025e-05
1.32664e-05
8.01431e-06
3.27794e-06
5.68767e-06
4.47715e-06
4.61697e-06
4.63378e-06
5.19373e-06
5.69049e-06
6.58086e-06
7.83302e-06
9.58176e-06
1.30433e-05
1.47101e-05
1.70039e-05
1.92764e-05
2.03719e-05
2.0389e-05
1.92025e-05
1.65592e-05
1.25292e-05
6.95127e-06
2.39129e-06
6.89492e-06
5.97741e-06
6.04871e-06
6.02614e-06
6.7707e-06
7.75925e-06
9.33307e-06
1.15742e-05
1.6044e-05
1.94184e-05
2.08922e-05
2.22811e-05
2.29891e-05
2.28036e-05
2.16434e-05
1.91236e-05
1.59783e-05
1.16365e-05
5.21227e-06
1.4613e-06
9.04209e-06
8.62589e-06
8.85591e-06
9.4506e-06
1.11573e-05
1.36315e-05
1.70257e-05
2.19429e-05
2.86577e-05
2.93148e-05
2.90058e-05
2.8242e-05
2.68635e-05
2.47635e-05
2.17287e-05
1.85431e-05
1.49006e-05
1.02319e-05
3.86089e-06
7.0322e-07
1.4652e-05
1.61261e-05
1.73501e-05
1.9641e-05
2.3167e-05
2.74832e-05
3.30494e-05
4.00055e-05
3.9929e-05
3.77281e-05
3.43071e-05
3.16735e-05
2.81443e-05
2.49421e-05
2.08841e-05
1.71289e-05
1.30022e-05
8.16958e-06
2.8001e-06
2.79825e-07
3.2535e-05
3.54968e-05
3.67263e-05
3.91893e-05
4.365e-05
4.79907e-05
5.20865e-05
4.78527e-05
4.42681e-05
4.03177e-05
3.6497e-05
3.26618e-05
2.8499e-05
2.33715e-05
1.86286e-05
1.41356e-05
1.03124e-05
6.84886e-06
2.64767e-06
1.50618e-07
5.28175e-05
5.57026e-05
5.59607e-05
5.7465e-05
6.23162e-05
5.96077e-05
5.53022e-05
5.03635e-05
4.62616e-05
4.13153e-05
3.72278e-05
3.20513e-05
2.7072e-05
1.98214e-05
1.4171e-05
9.90019e-06
8.14121e-06
7.1363e-06
3.54606e-06
2.41731e-07
5.03127e-05
5.30454e-05
5.34214e-05
5.5009e-05
5.98119e-05
5.78659e-05
5.37543e-05
4.90047e-05
4.51415e-05
4.03657e-05
3.66772e-05
3.15639e-05
2.7645e-05
2.05227e-05
1.48989e-05
1.00152e-05
7.79907e-06
6.2156e-06
2.89342e-06
2.02325e-07
2.79777e-05
3.08761e-05
3.22431e-05
3.47188e-05
3.91175e-05
4.36656e-05
4.96151e-05
4.56402e-05
4.26481e-05
3.84406e-05
3.56817e-05
3.1348e-05
2.83689e-05
2.39206e-05
1.93538e-05
1.45861e-05
1.00551e-05
5.73921e-06
1.90208e-06
1.41172e-07
1.3087e-05
1.40212e-05
1.49938e-05
1.70371e-05
2.01947e-05
2.42366e-05
2.9493e-05
3.63779e-05
3.97732e-05
3.61498e-05
3.40239e-05
3.0618e-05
2.76847e-05
2.45192e-05
2.12773e-05
1.73858e-05
1.29753e-05
7.77509e-06
2.38843e-06
1.66679e-07
8.63582e-06
8.11147e-06
8.25778e-06
8.65053e-06
1.00652e-05
1.22033e-05
1.51983e-05
1.9809e-05
2.62799e-05
2.74438e-05
2.77439e-05
2.75572e-05
2.6645e-05
2.474e-05
2.14577e-05
1.86321e-05
1.48677e-05
1.00527e-05
3.51604e-06
4.02372e-07
6.73713e-06
5.80347e-06
5.86765e-06
5.83001e-06
6.51043e-06
7.36861e-06
8.75156e-06
1.07369e-05
1.48148e-05
1.81652e-05
1.99544e-05
2.17042e-05
2.27277e-05
2.27651e-05
2.18286e-05
1.89618e-05
1.58233e-05
1.15137e-05
5.13733e-06
1.18985e-06
5.62098e-06
4.4266e-06
4.56407e-06
4.60663e-06
5.15369e-06
5.64347e-06
6.48679e-06
7.63698e-06
9.23974e-06
1.23538e-05
1.4131e-05
1.65011e-05
1.90377e-05
2.03374e-05
2.04498e-05
1.93498e-05
1.64179e-05
1.24411e-05
6.95078e-06
2.24061e-06
5.04312e-06
3.43586e-06
3.63757e-06
3.91599e-06
4.41416e-06
4.99466e-06
5.72924e-06
6.61036e-06
7.68614e-06
9.3324e-06
1.09167e-05
1.26677e-05
1.54102e-05
1.81116e-05
1.92446e-05
1.8892e-05
1.70957e-05
1.31994e-05
8.04046e-06
3.22018e-06
5.04887e-06
2.73452e-06
2.93392e-06
3.46454e-06
4.09293e-06
4.80537e-06
5.58438e-06
6.42252e-06
7.31427e-06
8.42087e-06
9.49906e-06
1.09424e-05
1.28275e-05
1.56478e-05
1.80323e-05
1.83914e-05
1.72095e-05
1.39533e-05
8.95312e-06
3.80584e-06
6.12367e-06
2.2426e-06
2.5377e-06
3.25623e-06
4.13597e-06
4.98422e-06
5.81856e-06
6.687e-06
7.55773e-06
8.43394e-06
9.37109e-06
1.04217e-05
1.20378e-05
1.40837e-05
1.6984e-05
1.83735e-05
1.75192e-05
1.47259e-05
9.59014e-06
3.95648e-06
1.09719e-05
2.13843e-06
2.66079e-06
3.59772e-06
4.6471e-06
5.72641e-06
6.63466e-06
7.48823e-06
8.31028e-06
9.06846e-06
9.78263e-06
1.04663e-05
1.1496e-05
1.32937e-05
1.54626e-05
1.7878e-05
1.76267e-05
1.55242e-05
1.03542e-05
3.99232e-06
1.23421e-06
0.000116558
0.000294184
0.000330906
0.00033481
0.000335356
0.000335357
0.000335342
0.000335343
0.000335345
0.000335345
0.000335343
0.000335342
0.000335357
0.000335356
0.00033481
0.000330906
0.000294184
0.000116558
1.23421e-06
1.36973e-06
6.8167e-05
0.000219584
0.000309504
0.000330909
0.000334527
0.000335273
0.000335315
0.000335296
0.000335287
0.000335287
0.000335296
0.000335315
0.000335273
0.000334527
0.000330909
0.000309504
0.000219585
6.81672e-05
1.36973e-06
1.51339e-06
5.28959e-05
0.000176459
0.000280579
0.000322148
0.000332504
0.000334604
0.0003351
0.000335168
0.000335172
0.000335172