/*--------------------------------*- C++ -*----------------------------------*\
| =========                 |                                                 |
| \\      /  F ield         | OpenFOAM: The Open Source CFD Toolbox           |
|  \\    /   O peration     | Version:  2.1.0                                 |
|   \\  /    A nd           | Web:      www.OpenFOAM.org                      |
|    \\/     M anipulation  |                                                 |
\*---------------------------------------------------------------------------*/
FoamFile
{
    version     2.0;
    format      ascii;
    class       volScalarField;
    location    "0.32";
    object      omega;
}
// * * * * * * * * * * * * * * * * * * * * * * * * * * * * * * * * * * * * * //

dimensions      [0 0 -1 0 0 0 0];

internalField   nonuniform List<scalar> 
6400
(
1627.95
1630.36
1631.06
1631.79
1632.1
1632.53
1632.7
1632.92
1632.99
1633.04
1633.03
1633.01
1632.88
1632.73
1632.48
1632.21
1631.86
1631.47
1631.02
1630.51
1629.96
1629.35
1628.71
1628
1627.27
1626.46
1625.63
1624.72
1623.8
1622.79
1621.77
1620.66
1619.53
1618.31
1617.07
1615.74
1614.37
1612.9
1611.37
1609.73
1608
1606.15
1604.18
1602.05
1599.77
1597.3
1594.64
1591.76
1588.66
1585.29
1581.66
1577.71
1573.39
1568.66
1563.56
1558.31
1552.72
1546.94
1540.85
1534.53
1527.96
1521.1
1514.01
1506.58
1498.88
1490.81
1482.43
1473.63
1464.34
1454.63
1444.34
1433.54
1422.12
1410.08
1397.4
1384.05
1370.07
1355.44
1340.23
1324.46
1308.18
1291.34
1273.67
1254.25
1233.46
1211.22
1186.82
1159.44
1127.54
1089.01
1040.27
975.561
887.259
769.31
619.061
538.024
566.2
735.48
892.951
942.787
689.757
690.643
691.852
693.312
694.736
696.484
698.006
699.877
701.488
703.422
705.13
707.114
708.918
710.947
712.843
714.923
716.913
719.049
721.131
723.332
725.511
727.791
730.076
732.45
734.857
737.348
739.89
742.515
745.205
747.982
750.837
753.785
756.827
759.971
763.225
766.596
770.097
773.73
777.486
781.383
785.42
789.609
793.956
798.469
803.156
808.026
813.087
818.348
823.818
829.506
835.428
841.566
847.935
854.532
861.392
868.577
876.06
883.891
892.068
900.631
909.602
919.006
928.886
939.268
950.212
961.641
973.554
985.892
998.938
1012.61
1027.04
1042.22
1058.24
1075.15
1093.03
1111.96
1132.02
1153.33
1176.01
1200.21
1226.14
1254.09
1283.15
1313.28
1344.87
1377.13
1409.51
1440.9
1470.02
1495.34
1513.85
1522.41
1524.19
1510.22
1475.17
1396.46
1285.58
1150.94
1005.59
848.11
505.313
508.731
510.332
513.553
515.65
518.889
521.303
524.563
527.226
530.531
533.413
536.792
539.88
543.355
546.642
550.237
553.721
557.453
561.129
565.012
568.884
572.935
577.011
581.24
585.523
589.949
594.451
599.093
603.829
608.706
613.694
618.827
624.085
629.494
635.042
640.747
646.602
652.63
658.832
665.229
671.819
678.62
685.636
692.88
700.36
708.09
716.075
724.329
732.855
741.662
750.751
760.14
769.835
779.851
790.205
800.926
812.015
823.499
835.385
847.696
860.442
873.635
887.288
901.405
915.992
931.085
946.706
962.887
979.396
996.314
1013.51
1031.01
1048.71
1066.6
1084.61
1102.73
1120.92
1139.18
1157.52
1175.93
1194.46
1213.13
1231.94
1250.95
1270.12
1289.25
1308.19
1326.41
1343.26
1357.57
1365.56
1368.47
1362.49
1336.81
1289.03
1209.66
1101.39
960.194
796.882
627.904
459.103
464.19
466.433
470.872
473.69
478.089
481.317
485.711
489.274
493.708
497.566
502.085
506.214
510.855
515.244
520.038
524.684
529.66
534.566
539.747
544.915
550.318
555.748
561.385
567.08
572.964
578.931
585.077
591.327
597.752
604.298
611.017
617.873
624.904
632.084
639.442
646.962
654.662
662.533
670.579
678.795
687.185
695.742
704.468
713.354
722.398
731.591
740.929
750.4
760
769.715
779.545
789.474
799.5
809.613
819.809
830.074
840.403
850.779
861.199
871.643
882.105
892.564
903.006
913.407
923.787
934.128
944.417
954.622
964.738
974.724
984.577
994.225
1003.64
1012.77
1021.55
1029.91
1037.74
1044.95
1051.4
1056.96
1061.43
1064.35
1065.68
1065.98
1063.52
1058.79
1050.94
1039.78
1024.46
1004.43
978.67
945.946
904.429
852.146
787.261
711.258
628.682
552.717
496.671
450.34
456.344
458.945
464.126
467.38
472.5
476.213
481.3
485.373
490.471
494.848
499.997
504.641
509.874
514.76
520.1
525.21
530.678
536.002
541.61
547.138
552.894
558.612
564.523
570.427
576.494
582.57
588.782
595.017
601.365
607.742
614.213
620.716
627.295
633.904
640.572
647.263
653.994
660.744
667.522
674.309
681.108
687.904
694.694
701.466
708.216
714.93
721.605
728.228
734.797
741.297
747.729
754.075
760.327
766.502
772.572
778.528
784.331
789.955
795.39
800.583
805.528
810.171
814.499
818.459
822.029
825.155
827.806
829.929
831.477
832.245
832.531
832.295
830.929
829.03
826.049
822.317
817.488
811.743
804.855
796.918
787.786
777.507
766.119
753.549
739.863
725.112
709.263
692.356
674.279
654.934
633.999
611.281
586.081
557.685
526.897
494.811
465.196
444.246
432.684
441.642
447.29
449.709
454.556
457.532
462.291
465.63
470.293
473.892
478.48
482.275
486.813
490.76
495.266
499.332
503.818
507.976
512.45
516.678
521.143
525.42
529.873
534.182
538.618
542.938
547.406
551.787
556.269
560.676
565.146
569.546
573.977
578.335
582.695
586.975
591.228
595.39
599.498
603.502
607.421
611.213
614.896
618.427
621.822
625.036
628.085
630.926
633.57
635.976
638.149
640.054
641.689
643.021
644.047
644.833
645.238
645.398
645.368
644.732
643.903
642.529
640.858
638.679
636.141
633.12
629.707
625.83
621.551
616.829
611.712
606.187
600.352
594.151
587.653
580.872
573.822
566.553
559.076
551.489
543.758
535.968
528.129
520.315
512.525
504.819
497.122
489.415
481.673
473.966
466.161
458.266
450.128
441.702
432.801
423.575
414.439
406.859
403.242
402.255
402.255
410.585
414.869
416.68
420.324
422.472
426.033
428.373
431.815
434.268
437.588
440.107
443.307
445.859
448.944
451.499
454.471
457.008
459.863
462.363
465.096
467.522
470.098
472.418
474.826
477.012
479.281
481.335
483.416
485.276
487.116
488.728
490.279
491.594
492.811
493.785
494.627
495.218
495.603
495.771
495.809
495.525
495.072
494.318
493.392
492.161
490.753
489.046
487.158
484.99
482.638
480.032
477.25
474.245
471.108
467.747
464.244
460.575
456.796
452.886
448.926
444.876
440.823
436.728
432.661
428.583
424.619
420.718
416.984
413.364
409.958
406.707
403.66
400.793
398.158
395.717
393.516
391.499
389.705
388.118
386.737
385.559
384.573
383.76
383.103
382.574
382.149
381.793
381.478
381.159
380.822
380.45
380.079
379.856
379.786
380.431
381.784
384.387
389.014
392.712
393.768
361.154
363.87
364.977
367.16
368.307
370.36
371.467
373.339
374.361
376.028
376.935
378.382
379.151
380.368
380.978
381.93
382.395
383.049
383.358
383.675
383.8
383.846
383.72
383.498
383.067
382.513
381.688
380.779
379.574
378.304
376.737
375.113
373.216
371.268
369.072
366.828
364.369
361.871
359.199
356.499
353.657
350.814
347.864
344.943
341.951
339.021
336.057
333.182
330.316
327.555
324.828
322.261
319.798
317.493
315.326
313.342
311.536
309.936
308.546
307.383
306.455
305.773
305.408
305.258
305.247
305.675
306.178
307.07
308.064
309.413
310.878
312.662
314.572
316.767
319.091
321.668
324.37
327.289
330.319
333.556
336.898
340.402
343.984
347.682
351.422
355.225
359.029
362.844
366.621
370.378
374.09
377.803
381.546
385.401
389.562
394.387
399.974
406.972
412.472
414.708
296.696
296.946
296.997
297.025
296.905
296.803
296.436
296.172
295.566
295.108
294.27
293.603
292.543
291.658
290.384
289.282
287.808
286.49
284.836
283.31
281.517
279.83
277.924
276.107
274.109
272.199
270.148
268.194
266.135
264.188
262.172
260.277
258.341
256.536
254.732
253.062
251.435
249.945
248.533
247.266
246.105
245.1
244.225
243.516
242.954
242.583
242.403
242.344
242.475
242.856
243.409
244.157
245.072
246.175
247.455
248.918
250.563
252.388
254.398
256.587
258.963
261.518
264.261
267.183
270.305
273.601
277.082
280.748
284.597
288.64
292.869
297.304
301.931
306.773
311.817
317.087
322.57
328.29
334.235
340.423
346.845
353.517
360.43
367.594
374.994
382.633
390.491
398.559
406.81
415.222
423.771
432.44
441.226
450.15
459.276
468.814
479.517
491.104
502.699
508.421
238.511
236.891
236.19
234.76
233.885
232.418
231.397
229.9
228.767
227.254
226.043
224.53
223.276
221.784
220.522
219.075
217.839
216.461
215.285
214.003
212.917
211.756
210.786
209.769
208.94
208.089
207.422
206.756
206.271
205.808
205.521
205.308
205.218
205.195
205.329
205.564
205.933
206.41
207.022
207.747
208.605
209.582
210.696
211.92
213.282
214.752
216.363
218.079
219.941
221.91
224.025
226.24
228.596
231.055
233.654
236.359
239.204
242.161
245.259
248.473
251.833
255.314
258.947
262.709
266.629
270.687
274.912
279.287
283.839
288.555
293.462
298.55
303.843
309.338
315.056
320.999
327.189
333.63
340.345
347.344
354.65
362.279
370.256
378.602
387.346
396.518
406.156
416.295
426.984
438.274
450.229
462.922
476.443
490.896
506.4
523.04
540.739
559.238
573.898
580.441
267.797
267.508
267.208
266.785
266.273
265.682
264.958
264.183
263.254
262.291
261.17
260.02
258.723
257.393
255.942
254.459
252.88
251.285
249.611
247.943
246.213
244.514
242.771
241.083
239.371
237.738
236.101
234.564
233.047
231.648
230.293
229.068
227.913
226.897
225.979
225.204
224.551
224.047
223.694
223.523
223.462
223.54
223.875
224.282
224.918
225.645
226.587
227.632
228.88
230.239
231.791
233.461
235.316
237.295
239.45
241.741
244.197
246.775
249.526
252.394
255.439
258.601
261.944
265.408
269.055
272.832
276.795
280.899
285.192
289.64
294.286
299.101
304.123
309.334
314.769
320.41
326.292
332.405
338.78
345.413
352.335
359.546
367.079
374.941
383.164
391.76
400.764
410.194
420.087
430.471
441.407
452.939
465.15
478.119
491.983
506.883
522.908
539.719
553.514
559.762
326.6
328.54
329.301
330.702
331.391
332.585
333.166
334.11
334.561
335.231
335.54
335.91
336.059
336.12
336.003
335.748
335.274
334.732
333.919
333.075
331.938
330.789
329.346
327.901
326.173
324.449
322.466
320.491
318.29
316.088
313.711
311.332
308.821
306.321
303.726
301.161
298.536
295.962
293.363
290.85
288.344
285.956
283.608
281.417
279.326
277.406
275.626
274.032
272.614
271.398
270.382
269.585
269.013
268.729
268.62
268.661
269.094
269.593
270.45
271.403
272.691
274.092
275.803
277.644
279.767
282.035
284.568
287.249
290.161
293.226
296.501
299.932
303.562
307.345
311.327
315.459
319.784
324.255
328.912
333.711
338.677
343.763
348.999
354.344
359.82
365.393
371.079
376.847
382.713
388.655
394.679
400.773
407.013
413.488
420.396
428.079
436.918
447.251
458.237
463.983
375.141
378.718
380.21
383.131
384.78
387.568
389.283
391.901
393.625
396.055
397.75
399.986
401.621
403.681
405.246
407.104
408.546
410.181
411.449
412.835
413.887
414.997
415.794
416.601
417.111
417.554
417.757
417.835
417.785
417.455
417.009
416.321
415.479
414.421
413.187
411.759
410.146
408.357
406.291
404.051
401.563
398.913
396.046
393.045
389.866
386.574
383.156
379.67
376.1
372.509
368.882
365.282
361.694
358.176
354.706
351.335
348.1
345.02
342.115
339.381
336.864
334.547
332.477
330.632
329.058
327.719
326.657
325.817
325.248
324.963
324.856
324.885
325.312
325.775
326.567
327.393
328.492
329.615
330.95
332.297
333.837
335.431
337.18
338.98
340.909
342.904
345.007
347.183
349.471
351.855
354.395
357.096
360.011
363.145
366.607
370.658
375.791
382.408
387.276
389.073
410.143
414.953
417.001
421.075
423.538
427.512
430.234
434.09
436.981
440.723
443.721
447.355
450.411
453.983
457.123
460.637
463.819
467.271
470.46
473.837
476.998
480.284
483.385
486.561
489.571
492.613
495.5
498.382
501.113
503.797
506.336
508.788
511.09
513.272
515.288
517.155
518.835
520.35
521.754
522.949
523.968
524.746
525.259
525.498
525.565
525.305
524.722
523.865
522.672
521.193
519.377
517.271
514.836
512.117
509.086
505.79
502.211
498.394
494.35
490.134
485.731
481.177
476.458
471.614
466.689
461.681
456.649
451.602
446.642
441.734
436.973
432.333
427.901
423.636
419.593
415.695
412.041
408.544
405.29
402.185
399.258
396.442
393.787
391.209
388.743
386.337
384
381.689
379.417
377.163
374.958
372.813
370.822
369.243
368.081
367.643
368.313
372.116
375.206
376.103
424.437
430.129
432.578
437.462
440.507
445.319
448.774
453.525
457.289
462.01
466.021
470.743
474.961
479.714
484.109
488.903
493.448
498.292
502.962
507.857
512.632
517.576
522.436
527.422
532.348
537.366
542.338
547.376
552.377
557.421
562.434
567.471
572.477
577.483
582.449
587.391
592.277
597.119
601.957
606.729
611.46
616.103
620.664
625.117
629.452
633.643
637.677
641.537
645.2
648.652
651.867
654.834
657.522
659.921
662.001
663.748
665.134
666.137
666.635
666.822
666.713
665.906
665.003
663.437
661.62
659.174
656.381
652.992
649.202
644.849
640.071
634.765
629.032
622.808
616.228
609.259
601.94
594.321
586.375
578.184
569.695
561.018
552.095
543.005
533.695
524.158
514.387
504.343
493.964
483.061
471.811
459.965
447.617
434.782
421.878
409.026
398.042
391.362
388.474
387.174
424.72
430.222
432.62
437.38
440.404
445.123
448.597
453.31
457.145
461.899
466.046
470.885
475.315
480.272
484.963
490.065
495.006
500.272
505.453
510.898
516.313
521.948
527.591
533.422
539.288
545.316
551.397
557.622
563.909
570.324
576.807
583.406
590.075
596.845
603.685
610.616
617.615
624.696
631.842
639.053
646.323
653.644
661.009
668.415
675.848
683.308
690.78
698.259
705.726
713.171
720.573
727.948
735.265
742.525
749.709
756.808
763.81
770.708
777.478
784.115
790.573
796.845
802.956
808.809
814.428
819.72
824.693
829.262
833.418
837.086
840.243
842.825
844.788
845.895
846.357
846.404
845.092
843.201
840.039
836.001
830.627
824.11
816.118
806.717
795.654
782.94
768.465
752.031
733.665
713.148
690.382
664.974
636.63
604.914
570.7
533.314
495.942
460.591
435.329
418.513
432.448
436.846
438.807
442.709
445.213
449.094
451.979
455.866
459.058
462.991
466.449
470.463
474.165
478.3
482.241
486.524
490.702
495.158
499.574
504.226
508.888
513.758
518.675
523.785
528.971
534.34
539.81
545.456
551.222
557.159
563.229
569.47
575.856
582.42
589.144
596.054
603.144
610.435
617.906
625.578
633.443
641.513
649.784
658.259
666.935
675.807
684.892
694.217
703.775
713.59
723.656
733.899
744.357
754.987
765.801
776.769
787.886
799.136
810.496
821.959
833.502
845.125
856.806
868.543
880.327
892.147
903.987
915.827
927.637
939.382
951.028
962.65
974.158
985.568
996.826
1007.9
1018.68
1029.17
1039.21
1048.74
1057.58
1065.59
1072.51
1078.11
1081.5
1082.92
1083.05
1078.41
1070.92
1057.88
1039.61
1013.9
979.793
934.807
878.842
808.318
725.933
634.8
553.301
488.367
479.279
481.975
483.281
485.947
487.733
490.439
492.515
495.261
497.56
500.368
502.865
505.761
508.444
511.44
514.299
517.412
520.448
523.696
526.913
530.31
533.713
537.275
540.873
544.616
548.417
552.354
556.369
560.516
564.756
569.128
573.606
578.214
582.942
587.806
592.799
597.933
603.2
608.606
614.199
619.963
625.925
632.086
638.466
645.074
651.934
659.063
666.463
674.117
682.049
690.248
698.733
707.564
716.728
726.258
736.156
746.437
757.106
768.191
779.693
791.64
804.043
816.932
830.321
844.245
858.738
873.81
889.483
905.768
922.678
940.226
958.446
977.13
996.329
1015.94
1035.93
1056.2
1076.71
1097.39
1118.19
1139.1
1160.07
1181.1
1202.17
1223.22
1244.32
1265.46
1286.38
1306.57
1325.5
1341.79
1351.42
1355.03
1349.56
1321.65
1271.27
1196.16
1093.15
963.732
802.709
630.383
660.935
660.933
662.024
662.788
663.991
665.15
666.385
667.74
669.026
670.498
671.857
673.415
674.86
676.49
678.029
679.731
681.367
683.143
684.88
686.734
688.573
690.511
692.454
694.481
696.529
698.653
700.812
703.043
705.323
707.678
710.096
712.595
715.176
717.849
720.617
723.49
726.479
729.596
732.822
736.176
739.66
743.283
747.054
750.979
755.07
759.329
763.765
768.383
773.196
778.212
783.446
788.915
794.624
800.595
806.836
813.373
820.221
827.368
834.857
842.694
850.895
859.482
868.454
877.834
887.747
898.174
909.169
920.747
932.948
945.805
959.288
973.472
988.502
1004.39
1021.21
1039.05
1057.97
1078.06
1099.42
1122.14
1146.32
1172.08
1199.52
1228.74
1259.94
1291.89
1324.54
1356.36
1385.67
1410.17
1424.19
1429.34
1427.29
1411.34
1379.75
1319.91
1232.53
1121.9
997.779
849.012
1586.83
1588
1588.18
1588.22
1587.89
1587.75
1587.26
1587.04
1586.48
1586.2
1585.6
1585.27
1584.64
1584.25
1583.6
1583.12
1582.45
1581.88
1581.17
1580.52
1579.77
1579.02
1578.21
1577.39
1576.51
1575.6
1574.67
1573.68
1572.69
1571.64
1570.59
1569.49
1568.37
1567.19
1566
1564.76
1563.5
1562.18
1560.85
1559.47
1558.06
1556.6
1555.11
1553.56
1551.98
1550.33
1548.62
1546.83
1544.92
1542.9
1540.75
1538.45
1536
1533.38
1530.61
1527.7
1524.66
1521.43
1517.96
1514.22
1510.04
1505.42
1500.09
1494.06
1487.73
1480.99
1473.95
1466.54
1458.72
1450.49
1441.8
1432.63
1422.72
1412.25
1400.9
1388.8
1375.66
1361.55
1346.25
1329.77
1311.95
1292.75
1272.08
1249.86
1226
1200.25
1171.83
1139.3
1099.79
1051.78
990.977
910.649
810.296
700.746
584.607
535.294
555.929
721.736
886.718
939.905
865.821
324.739
176.617
119.713
95.2775
82.3204
76.0724
73.0999
72.1298
73.9926
80.8701
97.1366
118.566
155.791
206.573
271.024
348.57
443.74
560.524
611.009
693.118
329.203
219.163
154.355
121.771
104.08
92.8951
87.4215
85.4899
87.4364
99.404
115.294
144.162
184.236
237.295
299.339
371.853
459.234
545.152
569.416
544.65
318.792
242.334
180.197
147.643
125.439
111.841
105.914
104.224
108.484
119.985
143.679
174.236
218.11
268.904
325.692
389.988
462.589
515.06
523.666
444.712
305.225
256.334
198.169
171.187
146.108
134.011
128.345
126.771
131.028
153.667
177.206
213.361
255.793
301.499
351.762
406.139
455.502
474.983
475.399
388.276
300.486
266.349
214.711
192.017
168.693
159.1
155.318
155.034
174.547
194.989
222.258
256.751
292.183
330.277
370.437
410.149
433.116
427.343
428.592
360.151
300.421
273.879
232.032
214.512
200.898
197.203
197.129
211.128
227.293
247.287
271.973
298.844
326.286
355.64
383.593
399.115
397.468
368.755
383.154
352.356
312.85
296.025
272.791
265.592
262.99
262.598
269.341
278.573
290.639
305.494
321.922
338.98
355.459
369.919
376.797
375.33
344.419
301.171
349.099
386.866
375.129
371.267
361.473
356.743
351.187
348.979
348.446
350.646
354.978
359.335
364.154
366.85
367.88
366.498
358.232
331.727
277.884
232.153
331.291
499.111
483.869
476.457
457.524
448.618
434.251
427.201
417.515
412.317
404.265
397.788
388.627
378.091
365.463
349.172
316.575
267.642
202.481
160.943
326.032
562.92
541.511
531.84
508.764
497.709
479.049
468.766
451.929
440.361
423.458
409.298
390.096
370.022
341.277
301.698
251.33
197.502
144.167
119.131
329.733
544.06
523.924
514.883
493.161
482.792
465.432
456.136
441.208
431.038
416.416
403.931
387.412
369.679
345.112
309.325
259.429
203.563
145.386
117.71
328.127
457.335
446.196
440.64
424.711
417.437
406.517
401.272
395.631
392.845
389.443
385.97
381.313
374.286
364.791
353.437
326.911
278.77
211.21
171.496
325.65
358.657
343.487
338.47
330.554
327.173
324.09
323.259
325.935
330.808
338.376
346.413
354.683
362.405
366.256
367.624
363.365
340.133
287.416
239.696
326.681
336.513
296.632
279.098
253.876
245.462
242.483
242.289
250.652
261.372
275.36
292.711
311.53
331.789
351.942
370.497
379.74
381.006
352.706
308.208
336.357
346.633
288.049
262.167
220.936
203.524
189
184.642
184.149
197.898
215.149
236.615
262.924
291.757
321.49
353.625
385.552
403.694
404.912
374.78
370.648
374.332
289.19
255.925
206.185
184.244
161.405
151.741
147.651
147.044
165.02
186.388
214.409
250.241
287.461
327.544
369.996
413.956
438.821
434.126
420.97
429.363
293.869
246.107
189.93
163.77
140.007
128.496
123.142
121.683
125.863
146.985
171.156
207.45
251.014
298.462
350.674
407.478
460.333
480.758
472.254
531.4
308.101
233.599
173.642
141.868
120.333
107.376
101.692
100.108
104.615
115.916
138.888
169.794
213.652
265.585
323.925
390.561
466.977
518.89
523.517
686.552
317.976
211.175
148.196
116.942
99.815
89.4836
84.3951
82.6109
84.6519
96.0813
111.96
140.461
180.62
234.038
297.147
371.064
460.933
548.624
571.186
863.335
313.367
170.623
115.695
92.0452
79.5695
73.1596
70.4554
69.6746
72.0449
78.74
94.2965
115.897
152.622
203.617
268.74
347.579
444.633
563.173
613.496
646.053
32.1745
12.7362
11.3229
11.19
11.171
11.1705
11.1708
11.1706
11.1705
11.1705
11.1706
11.1708
11.1705
11.171
11.19
11.3229
12.7362
32.1745
646.053
672.74
55.0627
17.0386
12.0869
11.3039
11.1803
11.1547
11.1529
11.1534
11.1536
11.1536
11.1534
11.1529
11.1547
11.1803
11.3039
12.0869
17.0386
55.0626
672.74
698.454
71.0941
21.1543
13.3033
11.5874
11.2261
11.1552
11.1382
11.1358
11.1355
11.1355
11.1358
11.1382
11.1552
11.2261
11.5874
13.3033
21.1543
71.094
698.454
723.136
85.8503
25.1369
14.6461
12.0431
11.3371
11.1684
11.1265
11.1183
11.1171
11.1171
11.1183
11.1265
11.1684
11.3371
12.0431
14.6461
25.1369
85.8502
723.136
746.741
101.866
29.2063
16.0658
12.5884
11.5234
11.2064
11.1273
11.105
11.1003
11.1003
11.105
11.1273
11.2064
11.5234
12.5884
16.0658
29.2063
101.866
746.741
769.31
118.432
33.3669
17.5405
13.1971
11.7624
11.283
11.1366
11.0944
11.0843
11.0843
11.0944
11.1366
11.283
11.7624
13.1971
17.5405
33.3669
118.433
769.31
790.73
134.969
37.5679
19.0511
13.8502
12.0431
11.3872
11.16
11.0918
11.0718
11.0718
11.0918
11.16
11.3872
12.0431
13.8502
19.0512
37.5679
134.969
790.73
810.982
151.251
41.7802
20.5852
14.5352
12.3571
11.5178
11.2031
11.0955
11.0625
11.0625
11.0955
11.2031
11.5178
12.3571
14.5352
20.5852
41.7802
151.251
810.982
829.954
167.078
45.969
22.1303
15.2422
12.6968
11.6708
11.2604
11.1065
11.0594
11.0594
11.1065
11.2604
11.6708
12.6968
15.2422
22.1303
45.9691
167.078
829.954
847.653
182.401
50.1207
23.6796
15.9647
13.0568
11.8431
11.3324
11.129
11.0619
11.0619
11.129
11.3324
11.8431
13.0568
15.9647
23.6797
50.1208
182.401
847.653
863.991
197.097
54.2106
25.2248
16.6968
13.4321
12.0315
11.4179
11.1609
11.0697
11.0697
11.1609
11.4179
12.0315
13.4322
16.6968
25.2248
54.2108
197.097
863.991
879.013
211.156
58.2322
26.7619
17.4347
13.8193
12.2335
11.5156
11.2021
11.0862
11.0862
11.2021
11.5156
12.2335
13.8193
17.4347
26.762
58.2324
211.156
879.013
892.663
224.491
62.1652
28.2844
18.1745
14.2149
12.4467
11.6242
11.2528
11.1113
11.1113
11.2528
11.6242
12.4467
14.2149
18.1745
28.2845
62.1654
224.491
892.663
905.026
237.118
66.0088
29.7907
18.9141
14.6169
12.6691
11.7427
11.3126
11.1446
11.1446
11.3126
11.7427
12.6691
14.6169
18.9141
29.7908
66.009
237.119
905.026
916.068
248.97
69.7457
31.2754
19.6506
15.023
12.899
11.8698
11.381
11.1861
11.1861
11.381
11.8698
12.899
15.023
19.6507
31.2755
69.7459
248.971
916.067
925.905
260.09
73.378
32.7378
20.383
15.4319
13.1352
12.0048
11.4576
11.2357
11.2357
11.4576
12.0048
13.1352
15.4319
20.383
32.7379
73.3782
260.09
925.904
934.512
270.424
76.8909
34.1734
21.1088
15.8418
13.3762
12.1466
11.5418
11.293
11.293
11.5418
12.1466
13.3762
15.8418
21.1088
34.1735
76.891
270.424
934.512
942.037
280.036
80.289
35.5824
21.8276
16.2519
13.6211
12.2944
11.6331
11.3579
11.3579
11.6331
12.2944
13.6211
16.2519
21.8276
35.5825
80.2891
280.035
942.036
948.451
288.886
83.5604
36.9608
22.5374
16.6609
13.8691
12.4475
11.7309
11.4299
11.4299
11.7309
12.4475
13.8691
16.661
22.5375
36.9608
83.5605
288.885
948.45
953.925
297.052
86.712
38.3096
23.2382
17.0685
14.1193
12.6053
11.8348
11.5085
11.5085
11.8348
12.6053
14.1194
17.0685
23.2383
38.3096
86.7122
297.051
953.924
958.416
304.505
89.7343
39.6251
23.9283
17.4735
14.3712
12.7671
11.9442
11.5934
11.5934
11.9442
12.7671
14.3712
17.4735
23.9283
39.6251
89.7343
304.505
958.416
962.12
311.327
92.6352
40.9091
24.6079
17.8757
14.6241
12.9325
12.0587
11.684
11.684
12.0587
12.9325
14.6242
17.8757
24.608
40.9092
92.6354
311.326
962.12
964.967
317.505
95.4079
42.1581
25.2755
18.2742
14.8776
13.1009
12.1777
11.78
11.78
12.1777
13.1009
14.8776
18.2742
25.2755
42.1581
95.4079
317.505
964.966
967.18
323.104
98.0613
43.3748
25.9317
18.669
15.1313
13.2719
12.3009
11.8809
11.8809
12.3009
13.2719
15.1313
18.669
25.9318
43.375
98.0616
323.104
967.179
968.649
328.146
100.59
44.5556
26.575
19.0593
15.3846
13.445
12.4277
11.9862
11.9862
12.4277
13.445
15.3846
19.0593
26.575
44.5556
100.59
328.146
968.648
969.635
332.656
103.004
45.704
27.2062
19.4452
15.6374
13.62
12.5579
12.0955
12.0955
12.5579
13.62
15.6374
19.4452
27.2063
45.7043
103.005
332.655
969.634
969.97
336.703
105.3
46.8164
27.824
19.8261
15.8892
13.7964
12.691
12.2085
12.2085
12.691
13.7964
15.8892
19.8261
27.824
46.8163
105.3
336.703
969.969
969.834
340.244
107.487
47.897
28.4295
20.202
16.14
13.974
12.8267
12.3248
12.3248
12.8267
13.9741
16.14
20.2021
28.4296
47.8973
107.488
340.243
969.833
969.425
343.401
109.562
48.9419
29.0212
20.5725
16.3892
14.1525
12.9646
12.4441
12.4441
12.9646
14.1525
16.3892
20.5725
29.0212
48.9417
109.561
343.401
969.424
968.579
346.142
111.538
49.9563
29.6005
20.9378
16.6369
14.3316
13.1045
12.5659
12.5659
13.1045
14.3316
16.637
20.9379
29.6006
49.9565
111.538
346.141
968.578
967.379
348.532
113.407
50.9359
30.1661
21.2973
16.8828
14.5111
13.2461
12.69
12.69
13.2461
14.5111
16.8828
21.2973
30.166
50.9356
113.406
348.532
967.378
965.891
350.554
115.186
51.8865
30.7193
21.6514
17.1267
14.6907
13.389
12.8161
12.8161
13.389
14.6907
17.1267
21.6515
30.7194
51.8867
115.187
350.552
965.89
964.155
352.264
116.865
52.8037
31.259
21.9996
17.3685
14.8702
13.5331
12.944
12.944
13.5331
14.8702
17.3684
21.9995
31.2588
52.8033
116.865
352.263
964.154
962.205
353.66
118.463
53.6934
31.7865
22.3421
17.608
15.0495
13.6782
13.0733
13.0733
13.6782
15.0495
17.608
22.3422
31.7866
53.6937
118.463
353.658
962.204
960.074
354.764
119.967
54.5519
32.301
22.6788
17.8451
15.2284
13.8239
13.2039
13.2039
13.8239
15.2283
17.8451
22.6787
32.3007
54.5512
119.966
354.764
960.073
957.789
355.617
121.396
55.3838
32.8033
23.0097
18.0798
15.4067
13.9702
13.3355
13.3355
13.9702
15.4067
18.0798
23.0098
32.8036
55.3845
121.397
355.614
957.788
955.382
356.173
122.74
56.1878
33.2937
23.3349
18.3119
15.5842
14.1168
13.468
13.468
14.1168
15.5842
18.3118
23.3347
33.2931
56.1866
122.737
356.174
955.381
952.869
356.559
124.011
56.9653
33.7716
23.6541
18.5413
15.7609
14.2635
13.601
13.6011
14.2636
15.761
18.5414
23.6543
33.7722
56.9667
124.013
356.557
952.869
950.287
356.612
125.209
57.7191
34.2389
23.9679
18.7682
15.9367
14.4103
13.7346
13.7346
14.4103
15.9367
18.7681
23.9676
34.2382
57.7173
125.206
356.612
950.286
947.634
356.52
126.336
58.4468
34.6938
24.2757
18.9922
16.1114
14.557
13.8684
13.8684
14.557
16.1114
18.9922
24.2759
34.6945
58.4485
126.339
356.519
947.635
944.959
356.291
127.398
59.1537
35.1389
24.5782
19.2134
16.2849
14.7033
14.0024
14.0024
14.7033
16.2848
19.2133
24.5779
35.1382
59.1519
127.395
356.291
944.958
942.242
355.825
128.4
59.8371
35.5727
24.875
19.4319
16.4571
14.8493
14.1364
14.1364
14.8493
16.4571
19.4319
24.8751
35.573
59.8383
128.402
355.818
942.243
939.541
355.24
129.341
60.5007
35.9963
25.1663
19.6474
16.628
14.9948
14.2703
14.2703
14.9948
16.6279
19.6474
25.1662
35.9961
60.4998
129.339
355.246
939.539
936.819
354.509
130.246
61.1473
36.411
25.4527
19.8603
16.7975
15.1397
14.404
14.404
15.1397
16.7975
19.8603
25.4527
36.4109
61.1474
130.246
354.502
936.82
934.147
353.718
131.104
61.7756
36.8151
25.7333
20.0701
16.9654
15.2839
14.5373
14.5373
15.2838
16.9654
20.0701
25.7333
36.8152
61.7759
131.104
353.724
934.145
931.464
352.875
131.982
62.3981
37.2123
26.0097
20.2774
17.132
15.4273
14.6702
14.6702
15.4274
17.1321
20.2774
26.0097
37.2121
62.3974
131.98
352.87
931.466
928.861
352.022
132.874
63.0141
37.6001
26.2805
20.4816
17.2969
15.5699
14.8026
14.8025
15.5698
17.2968
20.4815
26.2804
37.6002
63.0146
132.875
352.026
928.86
926.331
351.165
133.82
63.6369
37.983
26.5474
20.6833
17.4603
15.7116
14.9344
14.9344
15.7116
17.4604
20.6834
26.5476
37.9831
63.6367
133.819
351.162
926.333
923.874
350.421
134.846
64.2658
38.3591
26.8093
20.882
17.6219
15.8522
15.0654
15.0654
15.8521
17.6218
20.8818
26.809
38.3587
64.2655
134.846
350.425
923.872
921.482
349.754
135.969
64.9099
38.7326
27.0679
21.0783
17.7821
15.9919
15.1958
15.1959
15.992
17.7823
21.0787
27.0684
38.7334
64.9111
135.971
349.752
921.484
919.157
349.293
137.196
65.5669
39.1018
27.3221
21.2718
17.9404
16.1304
15.3253
15.3252
16.1303
17.9402
21.2714
27.3215
39.1009
65.5655
137.194
349.295
919.155
916.894
348.942
138.526
66.2443
39.471
27.5738
21.4631
18.0973
16.2679
15.4541
15.4541
16.2681
18.0976
21.4637
27.5747
39.4725
66.2467
138.53
348.942
916.896
914.695
348.851
139.942
66.9345
39.8375
27.8217
21.6517
18.2523
16.4041
15.5817
15.5816
16.404
18.252
21.6512
27.8208
39.8361
66.9327
139.941
348.853
914.692
912.557
348.916
141.458
67.6481
40.2062
28.068
21.8384
18.4059
16.5394
15.7086
15.7087
16.5396
18.4064
21.8393
28.0695
40.2086
67.6513
141.461
348.918
912.559
910.482
349.098
143.027
68.3723
40.5737
28.3111
22.0226
18.5577
16.6731
15.8342
15.8342
16.673
18.5573
22.0218
28.3097
40.5715
68.3705
143.029
349.101
910.477
908.468
349.471
144.671
69.1191
40.9446
28.5533
22.2052
18.7081
16.806
15.9592
15.9593
16.8063
18.7088
22.2065
28.5556
40.9483
69.1235
144.672
349.47
908.469
906.516
349.99
146.346
69.8739
41.315
28.7929
22.3855
18.8567
16.9373
16.0827
16.0826
16.937
18.8562
22.3844
28.7909
41.312
69.8717
146.351
350.001
906.51
904.626
350.631
148.073
70.6503
41.6902
29.0322
22.5645
19.0041
17.0677
16.2056
16.2058
17.0682
19.0051
22.5663
29.0356
41.6958
70.6574
148.077
350.635
904.626
902.797
351.375
149.809
71.4307
42.0649
29.2694
22.7413
19.1497
17.1965
16.3268
16.3268
17.1962
19.1491
22.74
29.2669
42.061
71.4274
149.815
351.388
902.79
901.032
352.209
151.578
72.2312
42.4452
29.5068
22.9171
19.2942
17.3245
16.4477
16.4479
17.3252
19.2956
22.9197
29.5116
42.4535
72.2429
151.588
352.224
901.027
899.323
353.116
153.337
73.0318
42.8251
29.7426
23.0911
19.437
17.4507
16.5666
16.5665
17.4504
19.4362
23.0896
29.7397
42.8205
73.0285
153.343
353.134
899.314
897.681
354.082
155.113
73.8504
43.2104
29.9786
23.2641
19.5787
17.5764
16.6853
16.6856
17.5774
19.5808
23.268
29.9857
43.2225
73.8679
155.132
354.109
897.671
896.092
355.095
156.866
74.6658
43.5954
30.2136
23.4355
19.7188
17.7001
16.8017
16.8017
17.6998
19.718
23.4338
30.2102
43.5904
74.6646
156.883
355.129
896.076
894.569
356.143
158.623
75.4969
43.9856
30.4489
23.6061
19.858
17.8235
16.9184
16.9188
17.8249
19.8611
23.6119
30.4594
44.0038
75.5237
158.651
356.19
894.549
893.095
357.219
160.345
76.3214
44.3754
30.6835
23.7754
19.9955
17.9447
17.0324
17.0324
17.9445
19.9949
23.7738
30.6803
44.3714
76.3241
160.372