/*--------------------------------*- C++ -*----------------------------------*\
| =========                 |                                                 |
| \\      /  F ield         | OpenFOAM: The Open Source CFD Toolbox           |
|  \\    /   O peration     | Version:  2.1.0                                 |
|   \\  /    A nd           | Web:      www.OpenFOAM.org                      |
|    \\/     M anipulation  |                                                 |
\*---------------------------------------------------------------------------*/
FoamFile
{
    version     2.0;
    format      ascii;
    class       surfaceScalarField;
    location    "0.32";
    object      phi;
}
// * * * * * * * * * * * * * * * * * * * * * * * * * * * * * * * * * * * * * //

dimensions      [0 3 -1 0 0 0 0];

internalField   nonuniform List<scalar> 
12460
(
-2.53886e-05
-2.96049e-09
-2.53673e-05
-3.64941e-08
-2.5324e-05
-5.85696e-08
-2.52692e-05
-7.00996e-08
-2.52075e-05
-7.70678e-08
-2.51411e-05
-8.18984e-08
-2.50711e-05
-8.55063e-08
-2.49982e-05
-8.8441e-08
-2.49227e-05
-9.0986e-08
-2.4845e-05
-9.33209e-08
-2.4765e-05
-9.55439e-08
-2.46828e-05
-9.77026e-08
-2.45985e-05
-9.98378e-08
-2.4512e-05
-1.01955e-07
-2.44233e-05
-1.04078e-07
-2.43324e-05
-1.06198e-07
-2.42392e-05
-1.08336e-07
-2.41438e-05
-1.10474e-07
-2.40461e-05
-1.12622e-07
-2.39462e-05
-1.14779e-07
-2.38438e-05
-1.16967e-07
-2.37392e-05
-1.19133e-07
-2.36322e-05
-1.21333e-07
-2.35227e-05
-1.23619e-07
-2.34107e-05
-1.25974e-07
-2.32961e-05
-1.28374e-07
-2.31789e-05
-1.30823e-07
-2.30589e-05
-1.33322e-07
-2.29361e-05
-1.35883e-07
-2.28105e-05
-1.38507e-07
-2.2682e-05
-1.41206e-07
-2.25504e-05
-1.43981e-07
-2.24158e-05
-1.46846e-07
-2.22779e-05
-1.49805e-07
-2.21368e-05
-1.5287e-07
-2.19922e-05
-1.56044e-07
-2.1844e-05
-1.59334e-07
-2.16922e-05
-1.6275e-07
-2.15366e-05
-1.66304e-07
-2.1377e-05
-1.70005e-07
-2.12133e-05
-1.73866e-07
-2.10452e-05
-1.77891e-07
-2.08728e-05
-1.82086e-07
-2.06956e-05
-1.86459e-07
-2.05137e-05
-1.91012e-07
-2.03268e-05
-1.95745e-07
-2.01347e-05
-2.00655e-07
-1.99372e-05
-2.05728e-07
-1.97342e-05
-2.10997e-07
-1.95257e-05
-2.16313e-07
-1.93115e-05
-2.21734e-07
-1.90912e-05
-2.2756e-07
-1.88645e-05
-2.33743e-07
-1.86312e-05
-2.40024e-07
-1.83916e-05
-2.46139e-07
-1.81459e-05
-2.52041e-07
-1.78942e-05
-2.57898e-07
-1.76362e-05
-2.6385e-07
-1.7372e-05
-2.69941e-07
-1.71013e-05
-2.7622e-07
-1.6824e-05
-2.82682e-07
-1.65397e-05
-2.89378e-07
-1.62483e-05
-2.96335e-07
-1.59495e-05
-3.03558e-07
-1.5643e-05
-3.11084e-07
-1.53285e-05
-3.18936e-07
-1.50056e-05
-3.27167e-07
-1.46738e-05
-3.35821e-07
-1.43327e-05
-3.44928e-07
-1.39819e-05
-3.54513e-07
-1.36209e-05
-3.64619e-07
-1.32489e-05
-3.75298e-07
-1.28656e-05
-3.86592e-07
-1.24701e-05
-3.98576e-07
-1.20616e-05
-4.1133e-07
-1.16394e-05
-4.24968e-07
-1.12025e-05
-4.39628e-07
-1.07494e-05
-4.55493e-07
-1.0279e-05
-4.72822e-07
-9.78923e-06
-4.91971e-07
-9.27794e-06
-5.13373e-07
-8.74231e-06
-5.37577e-07
-8.17886e-06
-5.65267e-07
-7.58339e-06
-5.97138e-07
-6.95126e-06
-6.3365e-07
-6.27764e-06
-6.74975e-07
-5.55805e-06
-7.20777e-07
-4.78955e-06
-7.69511e-07
-3.97311e-06
-8.17245e-07
-3.11832e-06
-8.55366e-07
-2.25231e-06
-8.66323e-07
-1.43705e-06
-8.15323e-07
-7.77732e-07
-6.59152e-07
-3.82276e-07
-3.95271e-07
-2.86186e-07
-9.66943e-08
-5.36954e-07
2.483e-07
-1.43017e-06
8.8916e-07
-3.72295e-06
2.29115e-06
-9.29233e-06
5.56921e-06
1.54942e-05
-2.47865e-05
-3.07075e-05
-2.13485e-08
-3.06768e-05
-8.73066e-08
-3.0632e-05
-1.23627e-07
-3.05785e-05
-1.43906e-07
-3.05191e-05
-1.56685e-07
-3.04556e-05
-1.65609e-07
-3.03889e-05
-1.72301e-07
-3.03197e-05
-1.77735e-07
-3.02483e-05
-1.8245e-07
-3.01747e-05
-1.86764e-07
-3.00992e-05
-1.90869e-07
-3.00216e-05
-1.94855e-07
-2.99422e-05
-1.988e-07
-2.98607e-05
-2.02718e-07
-2.97773e-05
-2.06653e-07
-2.96918e-05
-2.10592e-07
-2.96043e-05
-2.14568e-07
-2.95147e-05
-2.18552e-07
-2.9423e-05
-2.22555e-07
-2.93293e-05
-2.26559e-07
-2.92334e-05
-2.3063e-07
-2.91354e-05
-2.34623e-07
-2.90354e-05
-2.38613e-07
-2.89332e-05
-2.42745e-07
-2.88289e-05
-2.46964e-07
-2.87225e-05
-2.51238e-07
-2.86138e-05
-2.55577e-07
-2.8503e-05
-2.59992e-07
-2.83899e-05
-2.64494e-07
-2.82746e-05
-2.69092e-07
-2.8157e-05
-2.738e-07
-2.8037e-05
-2.78625e-07
-2.79146e-05
-2.83582e-07
-2.77897e-05
-2.8868e-07
-2.76624e-05
-2.93937e-07
-2.75325e-05
-2.99361e-07
-2.74e-05
-3.04962e-07
-2.72648e-05
-3.10753e-07
-2.71269e-05
-3.16751e-07
-2.69861e-05
-3.22973e-07
-2.68425e-05
-3.29438e-07
-2.66958e-05
-3.36158e-07
-2.65461e-05
-3.43146e-07
-2.63931e-05
-3.50422e-07
-2.62369e-05
-3.57998e-07
-2.60772e-05
-3.65883e-07
-2.5914e-05
-3.74091e-07
-2.5747e-05
-3.82615e-07
-2.55761e-05
-3.91507e-07
-2.54011e-05
-4.00619e-07
-2.52222e-05
-4.09775e-07
-2.50396e-05
-4.18987e-07
-2.48538e-05
-4.2824e-07
-2.46647e-05
-4.37528e-07
-2.44722e-05
-4.46843e-07
-2.42761e-05
-4.56094e-07
-2.40764e-05
-4.65345e-07
-2.38731e-05
-4.74725e-07
-2.3666e-05
-4.84296e-07
-2.34553e-05
-4.94131e-07
-2.32407e-05
-5.04237e-07
-2.30222e-05
-5.14658e-07
-2.27997e-05
-5.25398e-07
-2.25732e-05
-5.36469e-07
-2.23426e-05
-5.47914e-07
-2.21078e-05
-5.59778e-07
-2.18687e-05
-5.72126e-07
-2.16253e-05
-5.85021e-07
-2.13772e-05
-5.9855e-07
-2.11244e-05
-6.12772e-07
-2.08665e-05
-6.27782e-07
-2.06033e-05
-6.43689e-07
-2.03343e-05
-6.60601e-07
-2.00591e-05
-6.78676e-07
-1.9777e-05
-6.98094e-07
-1.94876e-05
-7.19078e-07
-1.91898e-05
-7.41902e-07
-1.88828e-05
-7.66886e-07
-1.85654e-05
-7.94464e-07
-1.82363e-05
-8.25199e-07
-1.78941e-05
-8.59734e-07
-1.75368e-05
-8.9882e-07
-1.71626e-05
-9.43341e-07
-1.67693e-05
-9.94224e-07
-1.63547e-05
-1.05208e-06
-1.59164e-05
-1.11699e-06
-1.54529e-05
-1.1881e-06
-1.49636e-05
-1.26264e-06
-1.44505e-05
-1.33426e-06
-1.39199e-05
-1.39019e-06
-1.33842e-05
-1.40652e-06
-1.28627e-05
-1.34196e-06
-1.23894e-05
-1.13831e-06
-1.2047e-05
-7.44381e-07
-1.20788e-05
-7.11779e-08
-1.26044e-05
7.69195e-07
-1.39704e-05
2.25131e-06
-1.66923e-05
5.01184e-06
-2.18103e-05
1.0687e-05
2.6557e-05
-3.28731e-05
-3.37273e-05
-4.7912e-08
-3.37047e-05
-1.32719e-07
-3.3671e-05
-1.80529e-07
-3.36298e-05
-2.08164e-07
-3.35837e-05
-2.25755e-07
-3.35341e-05
-2.38007e-07
-3.3482e-05
-2.4711e-07
-3.34278e-05
-2.54465e-07
-3.33718e-05
-2.60776e-07
-3.33143e-05
-2.66531e-07
-3.32552e-05
-2.71959e-07
-3.31946e-05
-2.77232e-07
-3.31325e-05
-2.82425e-07
-3.30689e-05
-2.87598e-07
-3.30038e-05
-2.92783e-07
-3.29372e-05
-2.97999e-07
-3.2869e-05
-3.03273e-07
-3.27991e-05
-3.08598e-07
-3.27276e-05
-3.13977e-07
-3.26543e-05
-3.19409e-07
-3.25792e-05
-3.24971e-07
-3.25022e-05
-3.30544e-07
-3.24234e-05
-3.36056e-07
-3.23428e-05
-3.41536e-07
-3.22608e-05
-3.4699e-07
-3.21771e-05
-3.52458e-07
-3.2092e-05
-3.57974e-07
-3.20054e-05
-3.63556e-07
-3.19172e-05
-3.69219e-07
-3.18276e-05
-3.74973e-07
-3.17365e-05
-3.8083e-07
-3.16439e-05
-3.86799e-07
-3.15498e-05
-3.92894e-07
-3.14542e-05
-3.99121e-07
-3.13572e-05
-4.05495e-07
-3.12587e-05
-4.12026e-07
-3.11588e-05
-4.18722e-07
-3.10575e-05
-4.25585e-07
-3.09549e-05
-4.32635e-07
-3.08509e-05
-4.39883e-07
-3.07455e-05
-4.47341e-07
-3.06389e-05
-4.55021e-07
-3.05311e-05
-4.62928e-07
-3.04221e-05
-4.71078e-07
-3.03119e-05
-4.79479e-07
-3.02007e-05
-4.88134e-07
-3.00885e-05
-4.97053e-07
-2.99754e-05
-5.06223e-07
-2.98615e-05
-5.15611e-07
-2.97469e-05
-5.25165e-07
-2.96316e-05
-5.34804e-07
-2.95157e-05
-5.44346e-07
-2.93994e-05
-5.53685e-07
-2.9283e-05
-5.62924e-07
-2.91663e-05
-5.7226e-07
-2.90492e-05
-5.81652e-07
-2.89317e-05
-5.91032e-07
-2.8814e-05
-6.00439e-07
-2.86961e-05
-6.09913e-07
-2.85782e-05
-6.19498e-07
-2.84606e-05
-6.29209e-07
-2.83433e-05
-6.39072e-07
-2.82265e-05
-6.49049e-07
-2.81105e-05
-6.59124e-07
-2.79956e-05
-6.69306e-07
-2.7882e-05
-6.79625e-07
-2.77701e-05
-6.90117e-07
-2.76602e-05
-7.00812e-07
-2.75527e-05
-7.1179e-07
-2.74479e-05
-7.23108e-07
-2.73462e-05
-7.34855e-07
-2.7248e-05
-7.4715e-07
-2.71535e-05
-7.60104e-07
-2.70631e-05
-7.73916e-07
-2.69771e-05
-7.88815e-07
-2.68957e-05
-8.05095e-07
-2.68188e-05
-8.23131e-07
-2.67466e-05
-8.43351e-07
-2.66789e-05
-8.66322e-07
-2.66153e-05
-8.92794e-07
-2.65552e-05
-9.23591e-07
-2.64982e-05
-9.59608e-07
-2.64432e-05
-1.00184e-06
-2.63897e-05
-1.05126e-06
-2.63365e-05
-1.10857e-06
-2.6283e-05
-1.17374e-06
-2.62288e-05
-1.24547e-06
-2.61745e-05
-1.32009e-06
-2.6122e-05
-1.38975e-06
-2.60756e-05
-1.43949e-06
-2.6042e-05
-1.443e-06
-2.60292e-05
-1.35737e-06
-2.60499e-05
-1.1198e-06
-2.6144e-05
-6.51947e-07
-2.63336e-05
1.17543e-07
-2.68372e-05
1.27234e-06
-2.78543e-05
3.2679e-06
-2.97726e-05
6.92988e-06
-3.33145e-05
1.42289e-05
3.11772e-05
-3.79348e-05
-3.64751e-05
-7.47227e-08
-3.64659e-05
-1.67074e-07
-3.64498e-05
-2.22025e-07
-3.64282e-05
-2.55087e-07
-3.64027e-05
-2.76328e-07
-3.63746e-05
-2.90958e-07
-3.63447e-05
-3.01661e-07
-3.63134e-05
-3.10162e-07
-3.6281e-05
-3.17321e-07
-3.62477e-05
-3.23758e-07
-3.62136e-05
-3.2974e-07
-3.61787e-05
-3.355e-07
-3.61432e-05
-3.41116e-07
-3.61069e-05
-3.4668e-07
-3.60699e-05
-3.52215e-07
-3.60323e-05
-3.57759e-07
-3.59941e-05
-3.63333e-07
-3.59552e-05
-3.68946e-07
-3.59157e-05
-3.7458e-07
-3.58756e-05
-3.80243e-07
-3.58351e-05
-3.85937e-07
-3.5794e-05
-3.91677e-07
-3.57523e-05
-3.97438e-07
-3.57101e-05
-4.03116e-07
-3.56673e-05
-4.08697e-07
-3.56241e-05
-4.14237e-07
-3.55805e-05
-4.19775e-07
-3.55365e-05
-4.25333e-07
-3.54922e-05
-4.30921e-07
-3.54477e-05
-4.36548e-07
-3.5403e-05
-4.42222e-07
-3.53582e-05
-4.47947e-07
-3.53132e-05
-4.53733e-07
-3.52683e-05
-4.59579e-07
-3.52235e-05
-4.65491e-07
-3.51789e-05
-4.71469e-07
-3.51345e-05
-4.77518e-07
-3.50905e-05
-4.83638e-07
-3.5047e-05
-4.89834e-07
-3.50042e-05
-4.96098e-07
-3.49621e-05
-5.02435e-07
-3.49209e-05
-5.08843e-07
-3.48808e-05
-5.15312e-07
-3.4842e-05
-5.2184e-07
-3.48047e-05
-5.28418e-07
-3.47691e-05
-5.3503e-07
-3.47355e-05
-5.41662e-07
-3.47041e-05
-5.48289e-07
-3.46753e-05
-5.54831e-07
-3.46492e-05
-5.61247e-07
-3.46261e-05
-5.67702e-07
-3.46056e-05
-5.74241e-07
-3.45877e-05
-5.8068e-07
-3.45725e-05
-5.86944e-07
-3.45601e-05
-5.93097e-07
-3.45508e-05
-5.99098e-07
-3.45448e-05
-6.04901e-07
-3.45424e-05
-6.10492e-07
-3.45436e-05
-6.15888e-07
-3.4549e-05
-6.21099e-07
-3.45588e-05
-6.26133e-07
-3.45732e-05
-6.31036e-07
-3.45926e-05
-6.35769e-07
-3.46173e-05
-6.40286e-07
-3.46475e-05
-6.44592e-07
-3.46837e-05
-6.48721e-07
-3.47262e-05
-6.52725e-07
-3.47751e-05
-6.5666e-07
-3.48307e-05
-6.60622e-07
-3.48934e-05
-6.6471e-07
-3.49631e-05
-6.69058e-07
-3.50402e-05
-6.73851e-07
-3.51245e-05
-6.793e-07
-3.5216e-05
-6.85686e-07
-3.53144e-05
-6.93356e-07
-3.54196e-05
-7.02743e-07
-3.55309e-05
-7.1438e-07
-3.56478e-05
-7.28842e-07
-3.57694e-05
-7.46817e-07
-3.58949e-05
-7.69238e-07
-3.60232e-05
-7.97072e-07
-3.61532e-05
-8.31267e-07
-3.62836e-05
-8.72841e-07
-3.64134e-05
-9.22728e-07
-3.65416e-05
-9.81442e-07
-3.66678e-05
-1.0486e-06
-3.67918e-05
-1.12233e-06
-3.69144e-05
-1.19822e-06
-3.70373e-05
-1.26752e-06
-3.71627e-05
-1.31454e-06
-3.72931e-05
-1.31304e-06
-3.74283e-05
-1.22255e-06
-3.75675e-05
-9.80789e-07
-3.77107e-05
-5.08919e-07
-3.7864e-05
2.70757e-07
-3.81504e-05
1.55864e-06
-3.87004e-05
3.81782e-06
-3.96841e-05
7.91355e-06
-4.12853e-05
1.58301e-05
3.12339e-05
-4.1342e-05
-3.92743e-05
-9.44792e-08
-3.92833e-05
-1.84992e-07
-3.9291e-05
-2.41359e-07
-3.92964e-05
-2.76505e-07
-3.93e-05
-2.99302e-07
-3.93025e-05
-3.14728e-07
-3.93044e-05
-3.25813e-07
-3.9306e-05
-3.34325e-07
-3.93074e-05
-3.41316e-07
-3.93089e-05
-3.47394e-07
-3.93105e-05
-3.52924e-07
-3.93123e-05
-3.58111e-07
-3.93144e-05
-3.63085e-07
-3.93169e-05
-3.67909e-07
-3.93198e-05
-3.72634e-07
-3.93233e-05
-3.7727e-07
-3.93273e-05
-3.8185e-07
-3.93321e-05
-3.8638e-07
-3.93377e-05
-3.90815e-07
-3.93442e-05
-3.95142e-07
-3.93517e-05
-3.99388e-07
-3.93605e-05
-4.03565e-07
-3.93703e-05
-4.07799e-07
-3.93811e-05
-4.1206e-07
-3.9393e-05
-4.16252e-07
-3.94058e-05
-4.20354e-07
-3.94197e-05
-4.24385e-07
-3.94348e-05
-4.28356e-07
-3.94511e-05
-4.32276e-07
-3.94688e-05
-4.36143e-07
-3.94879e-05
-4.39965e-07
-3.95085e-05
-4.4374e-07
-3.95308e-05
-4.47473e-07
-3.95548e-05
-4.5116e-07
-3.95806e-05
-4.54807e-07
-3.96084e-05
-4.584e-07
-3.96384e-05
-4.61937e-07
-3.96705e-05
-4.65424e-07
-3.9705e-05
-4.68865e-07
-3.9742e-05
-4.72241e-07
-3.97816e-05
-4.75558e-07
-3.9824e-05
-4.78812e-07
-3.98692e-05
-4.81996e-07
-3.99174e-05
-4.85108e-07
-3.99688e-05
-4.88144e-07
-4.00235e-05
-4.91091e-07
-4.00816e-05
-4.93946e-07
-4.01431e-05
-4.96693e-07
-4.02082e-05
-4.99292e-07
-4.02768e-05
-5.01738e-07
-4.03492e-05
-5.04119e-07
-4.04253e-05
-5.06453e-07
-4.05054e-05
-5.08636e-07
-4.05893e-05
-5.10602e-07
-4.06773e-05
-5.12358e-07
-4.07693e-05
-5.13881e-07
-4.08656e-05
-5.15157e-07
-4.0966e-05
-5.16187e-07
-4.10706e-05
-5.16994e-07
-4.11795e-05
-5.17605e-07
-4.12927e-05
-5.1807e-07
-4.141e-05
-5.18462e-07
-4.15314e-05
-5.18766e-07
-4.16568e-05
-5.18932e-07
-4.17862e-05
-5.18975e-07
-4.19194e-05
-5.18962e-07
-4.20564e-05
-5.18975e-07
-4.21968e-05
-5.19095e-07
-4.23407e-05
-5.1943e-07
-4.24877e-05
-5.20103e-07
-4.26377e-05
-5.21264e-07
-4.27904e-05
-5.23103e-07
-4.29455e-05
-5.25851e-07
-4.3103e-05
-5.29792e-07
-4.32624e-05
-5.3528e-07
-4.34236e-05
-5.42745e-07
-4.35863e-05
-5.52753e-07
-4.37502e-05
-5.65892e-07
-4.3915e-05
-5.82775e-07
-4.40805e-05
-6.04408e-07
-4.42464e-05
-6.31798e-07
-4.44124e-05
-6.65811e-07
-4.45782e-05
-7.07402e-07
-4.47439e-05
-7.5743e-07
-4.49093e-05
-8.1631e-07
-4.50747e-05
-8.83466e-07
-4.52405e-05
-9.56773e-07
-4.54072e-05
-1.03168e-06
-4.55753e-05
-1.09952e-06
-4.57447e-05
-1.14531e-06
-4.59129e-05
-1.14485e-06
-4.60735e-05
-1.06204e-06
-4.62119e-05
-8.4249e-07
-4.63082e-05
-4.12655e-07
-4.63646e-05
3.27152e-07
-4.64162e-05
1.61025e-06
-4.64836e-05
3.88521e-06
-4.65668e-05
7.99667e-06
-4.63413e-05
1.56045e-05
2.84018e-05
-4.35093e-05
-4.22608e-05
-1.00926e-07
-4.22918e-05
-1.81374e-07
-4.2328e-05
-2.32755e-07
-4.23663e-05
-2.65509e-07
-4.24057e-05
-2.86786e-07
-4.24462e-05
-3.00886e-07
-4.24875e-05
-3.10714e-07
-4.25298e-05
-3.17906e-07
-4.25731e-05
-3.23541e-07
-4.26174e-05
-3.28174e-07
-4.26628e-05
-3.32208e-07
-4.27093e-05
-3.35812e-07
-4.27571e-05
-3.39142e-07
-4.28061e-05
-3.42238e-07
-4.28566e-05
-3.45166e-07
-4.29084e-05
-3.47927e-07
-4.29618e-05
-3.50547e-07
-4.30167e-05
-3.53074e-07
-4.30733e-05
-3.554e-07
-4.31316e-05
-3.57494e-07
-4.31918e-05
-3.59511e-07
-4.32537e-05
-3.61439e-07
-4.33175e-05
-3.63336e-07
-4.33832e-05
-3.65187e-07
-4.34509e-05
-3.66931e-07
-4.35206e-05
-3.68549e-07
-4.35924e-05
-3.7005e-07
-4.36664e-05
-3.71439e-07
-4.37425e-05
-3.72728e-07
-4.38208e-05
-3.73912e-07
-4.39015e-05
-3.75008e-07
-4.39844e-05
-3.76014e-07
-4.40697e-05
-3.76944e-07
-4.41574e-05
-3.77793e-07
-4.42476e-05
-3.78581e-07
-4.43402e-05
-3.79296e-07
-4.44352e-05
-3.79938e-07
-4.45328e-05
-3.80512e-07
-4.46328e-05
-3.81041e-07
-4.47353e-05
-3.81517e-07
-4.48404e-05
-3.81952e-07
-4.49478e-05
-3.82349e-07
-4.50577e-05
-3.82709e-07
-4.517e-05
-3.83039e-07
-4.52846e-05
-3.83344e-07
-4.54015e-05
-3.83618e-07
-4.55207e-05
-3.83867e-07
-4.5642e-05
-3.84082e-07
-4.57654e-05
-3.84243e-07
-4.58908e-05
-3.84355e-07
-4.6018e-05
-3.84474e-07
-4.61472e-05
-3.84596e-07
-4.62781e-05
-3.8468e-07
-4.64106e-05
-3.84679e-07
-4.65447e-05
-3.84586e-07
-4.66802e-05
-3.84377e-07
-4.6817e-05
-3.84039e-07
-4.6955e-05
-3.83575e-07
-4.70941e-05
-3.82998e-07
-4.72342e-05
-3.82322e-07
-4.73753e-05
-3.81603e-07
-4.75171e-05
-3.8094e-07
-4.76596e-05
-3.80311e-07
-4.78028e-05
-3.79608e-07
-4.79465e-05
-3.78811e-07
-4.80908e-05
-3.77997e-07
-4.82357e-05
-3.7725e-07
-4.83811e-05
-3.76641e-07
-4.8527e-05
-3.7626e-07
-4.86734e-05
-3.76222e-07
-4.88204e-05
-3.76666e-07
-4.8968e-05
-3.7776e-07
-4.91161e-05
-3.79724e-07
-4.9265e-05
-3.82843e-07
-4.94146e-05
-3.87467e-07
-4.95649e-05
-3.94023e-07
-4.97161e-05
-4.03067e-07
-4.98681e-05
-4.15207e-07
-5.00211e-05
-4.30996e-07
-5.01755e-05
-4.51236e-07
-5.03313e-05
-4.76931e-07
-5.0489e-05
-5.09059e-07
-5.06487e-05
-5.4854e-07
-5.08107e-05
-5.96179e-07
-5.09753e-05
-6.5244e-07
-5.11426e-05
-7.16683e-07
-5.13133e-05
-7.86694e-07
-5.14872e-05
-8.58218e-07
-5.16637e-05
-9.23345e-07
-5.18407e-05
-9.68694e-07
-5.20125e-05
-9.7335e-07
-5.2168e-05
-9.06727e-07
-5.22838e-05
-7.26878e-07
-5.23304e-05
-3.66188e-07
-5.22887e-05
2.85418e-07
-5.21288e-05
1.45017e-06
-5.17715e-05
3.52781e-06
-5.10471e-05
7.2721e-06
-4.93393e-05
1.38966e-05
2.38052e-05
-4.4743e-05
-4.5337e-05
-9.22855e-08
-4.539e-05
-1.5451e-07
-4.54532e-05
-1.95563e-07
-4.55221e-05
-2.22271e-07
-4.55946e-05
-2.39491e-07
-4.56696e-05
-2.50611e-07
-4.57466e-05
-2.58009e-07
-4.58253e-05
-2.63078e-07
-4.59054e-05
-2.66744e-07
-4.5987e-05
-2.69495e-07
-4.60698e-05
-2.71687e-07
-4.6154e-05
-2.73471e-07
-4.62395e-05
-2.74995e-07
-4.63264e-05
-2.76292e-07
-4.64145e-05
-2.7743e-07
-4.65039e-05
-2.78412e-07
-4.65945e-05
-2.79268e-07
-4.66865e-05
-2.80032e-07
-4.67797e-05
-2.80634e-07
-4.68742e-05
-2.80942e-07
-4.69702e-05
-2.81029e-07
-4.70677e-05
-2.80935e-07
-4.71668e-05
-2.80752e-07
-4.72675e-05
-2.80486e-07
-4.73699e-05
-2.80132e-07
-4.7474e-05
-2.79667e-07
-4.75796e-05
-2.79113e-07
-4.76869e-05
-2.78469e-07
-4.77957e-05
-2.77763e-07
-4.79061e-05
-2.76984e-07
-4.8018e-05
-2.76168e-07
-4.81314e-05
-2.7531e-07
-4.82461e-05
-2.74449e-07
-4.83623e-05
-2.73569e-07
-4.84797e-05
-2.72713e-07
-4.85984e-05
-2.71858e-07
-4.87182e-05
-2.71029e-07
-4.88391e-05
-2.70228e-07
-4.8961e-05
-2.6948e-07
-4.90837e-05
-2.68781e-07
-4.92072e-05
-2.68148e-07
-4.93315e-05
-2.6758e-07
-4.94564e-05
-2.6708e-07
-4.95818e-05
-2.66651e-07
-4.97076e-05
-2.66302e-07
-4.98338e-05
-2.66015e-07
-4.99603e-05
-2.65801e-07
-5.00869e-05
-2.65644e-07
-5.02137e-05
-2.65536e-07
-5.03405e-05
-2.65455e-07
-5.04673e-05
-2.6545e-07
-5.0594e-05
-2.65496e-07
-5.07206e-05
-2.65555e-07
-5.08471e-05
-2.65586e-07
-5.09733e-05
-2.65567e-07
-5.10994e-05
-2.65468e-07
-5.12252e-05
-2.65259e-07
-5.13509e-05
-2.64927e-07
-5.14763e-05
-2.64468e-07
-5.16015e-05
-2.63874e-07
-5.17266e-05
-2.63173e-07
-5.18516e-05
-2.6252e-07
-5.19765e-05
-2.61911e-07
-5.21014e-05
-2.61095e-07
-5.22264e-05
-2.60055e-07
-5.23518e-05
-2.58874e-07
-5.24775e-05
-2.57635e-07
-5.26037e-05
-2.56407e-07
-5.27305e-05
-2.55266e-07
-5.28582e-05
-2.54312e-07
-5.29868e-05
-2.53671e-07
-5.31165e-05
-2.53501e-07
-5.32476e-05
-2.54012e-07
-5.33802e-05
-2.55476e-07
-5.35145e-05
-2.58236e-07
-5.36507e-05
-2.6271e-07
-5.37891e-05
-2.69373e-07
-5.39301e-05
-2.78818e-07
-5.40737e-05
-2.91831e-07
-5.422e-05
-3.09203e-07
-5.43692e-05
-3.31723e-07
-5.45218e-05
-3.60304e-07
-5.46783e-05
-3.95785e-07
-5.4839e-05
-4.38883e-07
-5.50045e-05
-4.90254e-07
-5.51749e-05
-5.49387e-07
-5.53505e-05
-6.14015e-07
-5.55308e-05
-6.80574e-07
-5.57142e-05
-7.42453e-07
-5.58966e-05
-7.8854e-07
-5.60699e-05
-8.02048e-07
-5.62195e-05
-7.58876e-07
-5.63181e-05
-6.29676e-07
-5.63258e-05
-3.59615e-07
-5.61974e-05
1.56112e-07
-5.58551e-05
1.10696e-06
-5.51362e-05
2.80791e-06
-5.37317e-05
5.86609e-06
-5.09174e-05
1.10802e-05
1.81846e-05
-4.52995e-05
-4.80886e-05
-7.14521e-08
-4.81541e-05
-1.11399e-07
-4.82319e-05
-1.39883e-07
-4.83173e-05
-1.58511e-07
-4.84074e-05
-1.70437e-07
-4.85005e-05
-1.7798e-07
-4.85958e-05
-1.82776e-07
-4.86924e-05
-1.85858e-07
-4.87902e-05
-1.87869e-07
-4.88889e-05
-1.89191e-07
-4.89883e-05
-1.90068e-07
-4.90884e-05
-1.9063e-07
-4.91892e-05
-1.90976e-07
-4.92906e-05
-1.91139e-07
-4.93926e-05
-1.91172e-07
-4.94952e-05
-1.91073e-07
-4.95984e-05
-1.90868e-07
-4.97023e-05
-1.90483e-07
-4.98068e-05
-1.89979e-07
-4.99118e-05
-1.8939e-07
-5.00171e-05
-1.8868e-07
-5.01228e-05
-1.87824e-07
-5.02288e-05
-1.86909e-07
-5.03351e-05
-1.85944e-07
-5.04417e-05
-1.84953e-07
-5.05485e-05
-1.83917e-07
-5.06555e-05
-1.82866e-07
-5.07626e-05
-1.81785e-07
-5.08697e-05
-1.80718e-07
-5.09769e-05
-1.79632e-07
-5.1084e-05
-1.78579e-07
-5.11911e-05
-1.77532e-07
-5.1298e-05
-1.76559e-07
-5.14049e-05
-1.75611e-07
-5.15115e-05
-1.74754e-07
-5.16179e-05
-1.73947e-07
-5.17241e-05
-1.73212e-07
-5.183e-05
-1.72555e-07
-5.19356e-05
-1.71981e-07
-5.20409e-05
-1.71489e-07
-5.21458e-05
-1.71092e-07
-5.22505e-05
-1.70774e-07
-5.23549e-05
-1.70539e-07
-5.24589e-05
-1.70374e-07
-5.25627e-05
-1.70291e-07
-5.26662e-05
-1.70262e-07
-5.27695e-05
-1.70288e-07
-5.28725e-05
-1.70353e-07
-5.29755e-05
-1.7045e-07
-5.30783e-05
-1.70547e-07
-5.3181e-05
-1.70661e-07
-5.32837e-05
-1.70772e-07
-5.33865e-05
-1.70844e-07
-5.34895e-05
-1.70837e-07
-5.35926e-05
-1.70724e-07
-5.3696e-05
-1.70471e-07
-5.37997e-05
-1.70042e-07
-5.39038e-05
-1.69419e-07
-5.40085e-05
-1.68584e-07
-5.41138e-05
-1.67525e-07
-5.42198e-05
-1.66207e-07
-5.43266e-05
-1.64873e-07
-5.44342e-05
-1.63687e-07
-5.45427e-05
-1.62054e-07
-5.46524e-05
-1.60006e-07
-5.47635e-05
-1.57686e-07
-5.48759e-05
-1.5517e-07
-5.49899e-05
-1.52519e-07
-5.51056e-05
-1.49794e-07
-5.52233e-05
-1.47083e-07
-5.5343e-05
-1.44497e-07
-5.5465e-05
-1.42184e-07
-5.55895e-05
-1.40345e-07
-5.57167e-05
-1.39234e-07
-5.58468e-05
-1.39178e-07
-5.59801e-05
-1.40581e-07
-5.61168e-05
-1.43889e-07
-5.62573e-05
-1.49688e-07
-5.64017e-05
-1.58817e-07
-5.65504e-05
-1.72079e-07
-5.67035e-05
-1.90189e-07
-5.68615e-05
-2.13973e-07
-5.70248e-05
-2.44192e-07
-5.71941e-05
-2.81361e-07
-5.73697e-05
-3.26488e-07
-5.75513e-05
-3.79578e-07
-5.77391e-05
-4.38016e-07
-5.79321e-05
-4.99367e-07
-5.81275e-05
-5.58747e-07
-5.83198e-05
-6.07797e-07
-5.84989e-05
-6.34178e-07
-5.86471e-05
-6.21553e-07
-5.87375e-05
-5.49422e-07
-5.87198e-05
-3.86697e-07
-5.85248e-05
-4.7155e-08
-5.80381e-05
6.12411e-07
-5.70374e-05
1.79836e-06
-5.51139e-05
3.93148e-06
-5.1532e-05
7.48356e-06
1.20034e-05
-4.53692e-05
-5.01262e-05
-3.89506e-08
-5.0194e-05
-6.03796e-08
-5.02742e-05
-7.59757e-08
-5.03622e-05
-8.62818e-08
-5.04548e-05
-9.30207e-08
-5.055e-05
-9.74308e-08
-5.06465e-05
-1.00358e-07
-5.07436e-05
-1.02345e-07
-5.08408e-05
-1.0373e-07
-5.09379e-05
-1.04713e-07
-5.10346e-05
-1.05427e-07
-5.11309e-05
-1.05941e-07
-5.12267e-05
-1.06307e-07
-5.13219e-05
-1.06545e-07
-5.14167e-05
-1.06683e-07
-5.15108e-05
-1.06719e-07
-5.16045e-05
-1.06661e-07
-5.16975e-05
-1.06437e-07
-5.179e-05
-1.06129e-07
-5.18818e-05
-1.05868e-07
-5.19729e-05
-1.05615e-07
-5.20631e-05
-1.05308e-07
-5.21525e-05
-1.0496e-07
-5.2241e-05
-1.04577e-07
-5.23288e-05
-1.04175e-07
-5.24157e-05
-1.03743e-07
-5.25019e-05
-1.033e-07
-5.25873e-05
-1.02835e-07
-5.26719e-05
-1.02372e-07
-5.27558e-05
-1.01888e-07
-5.2839e-05
-1.0141e-07
-5.29216e-05
-1.00926e-07
-5.30035e-05
-1.0048e-07
-5.30849e-05
-1.00046e-07
-5.31658e-05
-9.96579e-08
-5.32461e-05
-9.92971e-08
-5.33261e-05
-9.89659e-08
-5.34056e-05
-9.86688e-08
-5.34849e-05
-9.84036e-08
-5.35639e-05
-9.81662e-08
-5.36427e-05
-9.79871e-08
-5.37214e-05
-9.78193e-08
-5.38e-05
-9.76839e-08
-5.38786e-05
-9.75503e-08
-5.39573e-05
-9.74365e-08
-5.40361e-05
-9.73291e-08
-5.41152e-05
-9.71997e-08
-5.41946e-05
-9.70438e-08
-5.42743e-05
-9.68361e-08
-5.43545e-05
-9.65916e-08
-5.44352e-05
-9.62824e-08
-5.45165e-05
-9.58888e-08
-5.45985e-05
-9.53799e-08
-5.46813e-05
-9.47229e-08
-5.4765e-05
-9.38913e-08
-5.48496e-05
-9.28463e-08
-5.49352e-05
-9.15565e-08
-5.50219e-05
-8.99955e-08
-5.51098e-05
-8.81313e-08
-5.5199e-05
-8.59741e-08
-5.52898e-05
-8.33901e-08
-5.53821e-05
-8.06173e-08
-5.54758e-05
-7.83769e-08
-5.55711e-05
-7.53558e-08
-5.56683e-05
-7.16837e-08
-5.57676e-05
-6.76365e-08
-5.5869e-05
-6.32974e-08
-5.59726e-05
-5.87069e-08
-5.60787e-05
-5.3909e-08
-5.61874e-05
-4.89747e-08
-5.62988e-05
-4.40066e-08
-5.64133e-05
-3.91346e-08
-5.65309e-05
-3.45447e-08
-5.66519e-05
-3.04752e-08
-5.67767e-05
-2.723e-08
-5.69053e-05
-2.51891e-08
-5.70383e-05
-2.47981e-08
-5.71758e-05
-2.66353e-08
-5.73182e-05
-3.14283e-08
-5.7466e-05
-3.99187e-08
-5.76198e-05
-5.28419e-08
-5.778e-05
-7.09714e-08
-5.79471e-05
-9.51502e-08
-5.81219e-05
-1.25484e-07
-5.83051e-05
-1.63266e-07
-5.84956e-05
-2.10124e-07
-5.86941e-05
-2.61938e-07
-5.88991e-05
-3.18125e-07
-5.91073e-05
-3.75849e-07
-5.93124e-05
-4.29793e-07
-5.95032e-05
-4.72152e-07
-5.96612e-05
-4.94374e-07
-5.97576e-05
-4.85696e-07
-5.97446e-05
-4.3432e-07
-5.95349e-05
-2.93248e-07
-5.89713e-05
1.21774e-08
-5.78071e-05
5.95922e-07
-5.55653e-05
1.6451e-06
-5.15215e-05
3.38508e-06
5.52511e-06
-4.51058e-05
-5.10191e-05
-1.03412e-09
-5.10825e-05
-7.38768e-09
-5.1158e-05
-1.05622e-08
-5.1241e-05
-1.2881e-08
-5.13283e-05
-1.49666e-08
-5.14177e-05
-1.68975e-08
-5.15078e-05
-1.8723e-08
-5.15979e-05
-2.04325e-08
-5.16874e-05
-2.20628e-08
-5.1776e-05
-2.35939e-08
-5.18635e-05
-2.50524e-08
-5.19499e-05
-2.64219e-08
-5.20351e-05
-2.7714e-08
-5.2119e-05
-2.89181e-08
-5.22018e-05
-3.00347e-08
-5.22833e-05
-3.10667e-08
-5.23636e-05
-3.19867e-08
-5.24426e-05
-3.2781e-08
-5.25205e-05
-3.34892e-08
-5.25972e-05
-3.4188e-08
-5.26729e-05
-3.4843e-08
-5.27475e-05
-3.54292e-08
-5.28211e-05
-3.59321e-08
-5.28938e-05
-3.6366e-08
-5.29656e-05
-3.6726e-08
-5.30365e-05
-3.70225e-08
-5.31067e-05
-3.72497e-08
-5.31761e-05
-3.74247e-08
-5.32449e-05
-3.75298e-08
-5.33131e-05
-3.75799e-08
-5.33807e-05
-3.75597e-08
-5.34478e-05
-3.75047e-08
-5.35145e-05
-3.73967e-08
-5.35809e-05
-3.72739e-08
-5.36469e-05
-3.71113e-08
-5.37128e-05
-3.69309e-08
-5.37784e-05
-3.67306e-08
-5.38439e-05
-3.65038e-08
-5.39094e-05
-3.62465e-08
-5.39749e-05
-3.59549e-08
-5.40405e-05
-3.56554e-08
-5.41062e-05
-3.53139e-08
-5.41721e-05
-3.49378e-08
-5.42383e-05
-3.4505e-08
-5.43048e-05
-3.40232e-08
-5.43717e-05
-3.34879e-08
-5.44391e-05
-3.28651e-08
-5.45071e-05
-3.21512e-08
-5.45756e-05
-3.13217e-08
-5.46448e-05
-3.0395e-08
-5.47148e-05
-2.93353e-08
-5.47855e-05
-2.81232e-08
-5.48572e-05
-2.67269e-08
-5.49298e-05
-2.51125e-08
-5.50034e-05
-2.32677e-08
-5.50781e-05
-2.11371e-08
-5.5154e-05
-1.86978e-08
-5.52311e-05
-1.59159e-08
-5.53095e-05
-1.27481e-08
-5.53894e-05
-9.17338e-09
-5.54707e-05
-5.21275e-09
-5.5554e-05
-3.62502e-10
-5.56384e-05
2.88155e-09
-5.57246e-05
7.56486e-09
-5.58128e-05
1.31895e-08
-5.59031e-05
1.92314e-08
-5.59956e-05
2.56445e-08
-5.60904e-05
3.24208e-08
-5.61877e-05
3.95378e-08
-5.62876e-05
4.69415e-08
-5.63904e-05
5.45408e-08
-5.64962e-05
6.22283e-08
-5.66053e-05
6.98381e-08
-5.67178e-05
7.71525e-08
-5.68342e-05
8.38942e-08
-5.69546e-05
8.97119e-08
-5.70794e-05
9.41782e-08
-5.72089e-05
9.67542e-08
-5.73436e-05
9.67944e-08
-5.74839e-05
9.36149e-08
-5.76304e-05
8.65092e-08
-5.77835e-05
7.47019e-08
-5.79437e-05
5.74925e-08
-5.81112e-05
3.40814e-08
-5.82877e-05
5.22277e-09
-5.84708e-05
-3.53509e-08
-5.86622e-05
-7.96251e-08
-5.88601e-05
-1.30218e-07
-5.90608e-05
-1.86311e-07
-5.92575e-05
-2.45771e-07
-5.94393e-05
-3.05007e-07
-5.95882e-05
-3.62634e-07
-5.9674e-05
-4.20313e-07
-5.96532e-05
-4.79681e-07
-5.9435e-05
-5.4173e-07
-5.88592e-05
-6.0177e-07
-5.76417e-05
-6.66149e-07
-5.52869e-05
-7.57367e-07
-5.1063e-05
-8.86437e-07
-1.00314e-06
-4.45742e-05
-5.04486e-05
3.54711e-08
-5.05091e-05
4.75042e-08
-5.05828e-05
5.78102e-08
-5.06649e-05
6.39719e-08
-5.07519e-05
6.70273e-08
-5.08417e-05
6.80181e-08
-5.09328e-05
6.77445e-08
-5.10245e-05
6.672e-08
-5.11161e-05
6.52486e-08
-5.12074e-05
6.35289e-08
-5.12982e-05
6.16787e-08
-5.13883e-05
5.97651e-08
-5.14776e-05
5.78427e-08
-5.15661e-05
5.59282e-08
-5.16537e-05
5.40602e-08
-5.17404e-05
5.22363e-08
-5.18261e-05
5.05019e-08
-5.19109e-05
4.88521e-08
-5.19947e-05
4.72774e-08
-5.20775e-05
4.57322e-08
-5.21594e-05
4.42493e-08
-5.22403e-05
4.28356e-08
-5.23203e-05
4.15174e-08
-5.23994e-05
4.02814e-08
-5.24776e-05
3.91435e-08
-5.25549e-05
3.80858e-08
-5.26314e-05
3.71273e-08
-5.2707e-05
3.62417e-08
-5.27818e-05
3.54642e-08
-5.28559e-05
3.4778e-08
-5.29293e-05
3.42148e-08
-5.3002e-05
3.37273e-08
-5.30741e-05
3.33452e-08
-5.31457e-05
3.30185e-08
-5.32167e-05
3.27881e-08
-5.32873e-05
3.26221e-08
-5.33574e-05
3.25316e-08
-5.34272e-05
3.2523e-08
-5.34967e-05
3.25998e-08
-5.35659e-05
3.27574e-08
-5.3635e-05
3.3022e-08
-5.3704e-05
3.33673e-08
-5.37729e-05
3.38218e-08
-5.38418e-05
3.43807e-08
-5.39109e-05
3.50629e-08
-5.398e-05
3.58765e-08
-5.40494e-05
3.6841e-08
-5.41191e-05
3.79699e-08
-5.41891e-05
3.92742e-08
-5.42596e-05
4.07606e-08
-5.43305e-05
4.24514e-08
-5.44021e-05
4.43692e-08
-5.44742e-05
4.65405e-08
-5.45471e-05
4.89987e-08
-5.46208e-05
5.17635e-08
-5.46953e-05
5.48888e-08
-5.47708e-05
5.83909e-08
-5.48472e-05
6.2304e-08
-5.49247e-05
6.67045e-08
-5.50034e-05
7.15846e-08
-5.50833e-05
7.69703e-08
-5.5164e-05
8.27576e-08
-5.52469e-05
8.82996e-08
-5.53313e-05
9.48057e-08
-5.54173e-05
1.02174e-07
-5.55049e-05
1.10144e-07
-5.55944e-05
1.18653e-07
-5.56859e-05
1.27686e-07
-5.57795e-05
1.3723e-07
-5.58753e-05
1.47247e-07
-5.59737e-05
1.57653e-07
-5.60747e-05
1.68371e-07
-5.61785e-05
1.7926e-07
-5.62855e-05
1.90126e-07
-5.63958e-05
2.0072e-07
-5.65097e-05
2.10726e-07
-5.66277e-05
2.19744e-07
-5.67499e-05
2.27281e-07
-5.68768e-05
2.32752e-07
-5.70089e-05
2.35522e-07
-5.71466e-05
2.34911e-07
-5.72905e-05
2.3017e-07
-5.74409e-05
2.20519e-07
-5.75982e-05
2.0514e-07
-5.77613e-05
1.83378e-07
-5.79336e-05
1.53451e-07
-5.81115e-05
1.17017e-07
-5.82929e-05
7.22838e-08
-5.84734e-05
1.8184e-08
-5.86466e-05
-4.54153e-08
-5.88021e-05
-1.19241e-07
-5.8922e-05
-2.09066e-07
-5.89773e-05
-3.27328e-07
-5.89206e-05
-4.94465e-07
-5.8669e-05
-7.46395e-07
-5.80675e-05
-1.15091e-06
-5.68344e-05
-1.84114e-06
-5.44845e-05
-3.04322e-06
-5.03154e-05
-4.98647e-06
-7.31552e-06
-4.39347e-05
-4.87469e-05
6.29222e-08
-4.88022e-05
1.00481e-07
-4.88715e-05
1.24917e-07
-4.89499e-05
1.40326e-07
-4.90341e-05
1.4936e-07
-4.91221e-05
1.54228e-07
-4.92126e-05
1.56602e-07
-4.93048e-05
1.57403e-07
-4.93983e-05
1.57302e-07
-4.94926e-05
1.5661e-07
-4.95877e-05
1.55617e-07
-4.96834e-05
1.54397e-07
-4.97795e-05
1.53084e-07
-4.98761e-05
1.51674e-07
-4.9973e-05
1.50243e-07
-5.00702e-05
1.4879e-07
-5.01676e-05
1.47356e-07
-5.02651e-05
1.45935e-07
-5.03627e-05
1.44527e-07
-5.04603e-05
1.43104e-07
-5.0558e-05
1.41689e-07
-5.06555e-05
1.40286e-07
-5.07529e-05
1.38918e-07
-5.08501e-05
1.3758e-07
-5.0947e-05
1.36284e-07
-5.10437e-05
1.35014e-07
-5.114e-05
1.33789e-07
-5.12358e-05
1.3259e-07
-5.13313e-05
1.3145e-07
-5.14262e-05
1.30377e-07
-5.15206e-05
1.29398e-07
-5.16145e-05
1.28482e-07
-5.17078e-05
1.27636e-07
-5.18006e-05
1.26835e-07
-5.18927e-05
1.26111e-07
-5.19842e-05
1.25447e-07
-5.20751e-05
1.24866e-07
-5.21654e-05
1.2437e-07
-5.22551e-05