/*--------------------------------*- C++ -*----------------------------------*\
| =========                 |                                                 |
| \\      /  F ield         | OpenFOAM: The Open Source CFD Toolbox           |
|  \\    /   O peration     | Version:  2.1.0                                 |
|   \\  /    A nd           | Web:      www.OpenFOAM.org                      |
|    \\/     M anipulation  |                                                 |
\*---------------------------------------------------------------------------*/
FoamFile
{
    version     2.0;
    format      ascii;
    class       volScalarField;
    location    "0.32";
    object      rho;
}
// * * * * * * * * * * * * * * * * * * * * * * * * * * * * * * * * * * * * * //

dimensions      [1 -3 0 0 0 0 0];

internalField   nonuniform List<scalar> 
6400
(
983.991
983.406
982.822
982.235
981.647
981.055
980.46
979.863
979.263
978.662
978.059
977.456
976.853
976.251
975.65
975.05
974.452
973.857
973.266
972.677
972.093
971.513
970.938
970.368
969.804
969.245
968.693
968.147
967.607
967.075
966.55
966.033
965.523
965.021
964.527
964.041
963.564
963.096
962.636
962.185
961.743
961.31
960.887
960.472
960.067
959.672
959.285
958.908
958.541
958.182
957.833
957.492
957.161
956.838
956.525
956.219
955.92
955.629
955.345
955.069
954.799
954.537
954.281
954.033
953.792
953.558
953.331
953.111
952.898
952.692
952.494
952.303
952.119
951.943
951.775
951.614
951.462
951.317
951.182
951.056
950.94
950.837
950.748
950.676
950.626
950.606
950.626
950.702
950.864
951.163
951.698
952.687
954.617
958.491
964.333
958.72
946.696
944.642
944.563
944.559
978.636
978.01
977.375
976.742
976.111
975.482
974.854
974.228
973.604
972.983
972.364
971.75
971.139
970.533
969.931
969.336
968.746
968.162
967.584
967.014
966.45
965.894
965.345
964.804
964.27
963.745
963.228
962.719
962.219
961.727
961.244
960.77
960.304
959.848
959.401
958.962
958.533
958.113
957.702
957.3
956.907
956.524
956.149
955.783
955.426
955.078
954.739
954.409
954.087
953.774
953.469
953.172
952.883
952.601
952.325
952.057
951.796
951.541
951.293
951.051
950.816
950.587
950.365
950.148
949.937
949.732
949.532
949.339
949.15
948.968
948.79
948.618
948.452
948.29
948.135
947.984
947.839
947.7
947.567
947.439
947.318
947.203
947.095
946.994
946.901
946.816
946.739
946.67
946.609
946.554
946.498
946.428
946.32
946.125
945.78
945.292
944.747
944.574
944.56
944.558
974.976
974.333
973.677
973.027
972.381
971.739
971.101
970.468
969.839
969.215
968.597
967.985
967.379
966.779
966.187
965.602
965.024
964.455
963.893
963.341
962.797
962.262
961.736
961.22
960.712
960.214
959.725
959.245
958.775
958.314
957.862
957.42
956.987
956.564
956.15
955.746
955.351
954.965
954.588
954.221
953.863
953.513
953.173
952.841
952.518
952.204
951.897
951.599
951.309
951.027
950.752
950.485
950.225
949.972
949.727
949.488
949.257
949.033
948.816
948.605
948.401
948.204
948.012
947.827
947.648
947.475
947.307
947.146
946.989
946.838
946.692
946.552
946.416
946.285
946.16
946.039
945.924
945.813
945.707
945.606
945.51
945.418
945.332
945.25
945.174
945.101
945.034
944.97
944.911
944.856
944.804
944.756
944.711
944.671
944.637
944.612
944.579
944.561
944.558
944.557
971.777
971.126
970.463
969.806
969.158
968.515
967.879
967.249
966.625
966.009
965.399
964.797
964.203
963.617
963.04
962.47
961.91
961.359
960.816
960.283
959.76
959.246
958.742
958.247
957.762
957.288
956.823
956.368
955.923
955.488
955.062
954.647
954.242
953.847
953.461
953.085
952.719
952.362
952.015
951.677
951.349
951.03
950.72
950.419
950.127
949.844
949.569
949.303
949.045
948.795
948.554
948.32
948.095
947.879
947.671
947.471
947.279
947.095
946.919
946.75
946.589
946.435
946.289
946.15
946.018
945.893
945.775
945.663
945.558
945.46
945.368
945.282
945.202
945.128
945.06
944.998
944.941
944.89
944.843
944.801
944.764
944.731
944.702
944.677
944.655
944.636
944.621
944.608
944.597
944.588
944.581
944.575
944.571
944.568
944.565
944.563
944.56
944.558
944.557
944.557
969.012
968.368
967.712
967.065
966.425
965.794
965.17
964.554
963.947
963.347
962.756
962.174
961.601
961.037
960.482
959.937
959.401
958.875
958.359
957.853
957.356
956.87
956.393
955.927
955.471
955.025
954.59
954.165
953.75
953.346
952.952
952.568
952.195
951.831
951.478
951.134
950.801
950.477
950.163
949.859
949.565
949.28
949.005
948.74
948.484
948.238
948.001
947.773
947.554
947.345
947.146
946.955
946.773
946.601
946.437
946.282
946.136
945.998
945.868
945.746
945.633
945.527
945.429
945.338
945.253
945.176
945.105
945.041
944.982
944.929
944.881
944.838
944.8
944.766
944.736
944.709
944.686
944.666
944.648
944.633
944.62
944.609
944.6
944.592
944.585
944.58
944.575
944.571
944.568
944.565
944.563
944.562
944.561
944.56
944.559
944.559
944.558
944.558
944.557
944.557
966.902
966.287
965.663
965.047
964.44
963.841
963.252
962.671
962.1
961.539
960.987
960.446
959.914
959.392
958.881
958.38
957.889
957.409
956.939
956.479
956.03
955.592
955.164
954.747
954.34
953.944
953.558
953.182
952.816
952.461
952.115
951.78
951.454
951.138
950.831
950.534
950.246
949.968
949.699
949.438
949.187
948.945
948.711
948.485
948.268
948.06
947.859
947.667
947.483
947.306
947.137
946.975
946.821
946.673
946.533
946.399
946.272
946.152
946.037
945.929
945.827
945.73
945.639
945.553
945.472
945.397
945.325
945.259
945.197
945.139
945.085
945.035
944.988
944.945
944.905
944.868
944.834
944.802
944.773
944.747
944.723
944.701
944.681
944.662
944.646
944.631
944.617
944.606
944.595
944.586
944.579
944.573
944.568
944.565
944.563
944.562
944.561
944.561
944.561
944.561
966.023
965.471
964.914
964.365
963.826
963.297
962.778
962.269
961.771
961.284
960.807
960.341
959.887
959.442
959.009
958.586
958.173
957.771
957.379
956.996
956.624
956.262
955.91
955.567
955.235
954.911
954.597
954.292
953.995
953.707
953.428
953.156
952.892
952.636
952.387
952.146
951.911
951.682
951.46
951.244
951.033
950.828
950.628
950.433
950.242
950.056
949.874
949.696
949.521
949.35
949.183
949.018
948.856
948.697
948.541
948.387
948.235
948.086
947.939
947.795
947.653
947.513
947.376
947.241
947.109
946.979
946.852
946.727
946.605
946.487
946.371
946.258
946.148
946.041
945.938
945.838
945.741
945.647
945.557
945.469
945.385
945.305
945.228
945.154
945.083
945.015
944.951
944.89
944.833
944.781
944.734
944.693
944.659
944.633
944.615
944.605
944.597
944.592
944.59
944.591
967.113
966.657
966.202
965.756
965.321
964.896
964.482
964.079
963.687
963.306
962.936
962.576
962.227
961.889
961.561
961.242
960.933
960.633
960.343
960.061
959.788
959.523
959.266
959.017
958.776
958.542
958.314
958.093
957.878
957.669
957.465
957.266
957.072
956.882
956.696
956.513
956.334
956.157
955.984
955.812
955.642
955.474
955.307
955.141
954.975
954.81
954.646
954.481
954.316
954.15
953.984
953.816
953.648
953.478
953.307
953.135
952.96
952.784
952.607
952.427
952.245
952.062
951.876
951.689
951.499
951.307
951.114
950.919
950.721
950.523
950.322
950.12
949.917
949.712
949.506
949.299
949.091
948.881
948.671
948.458
948.244
948.027
947.808
947.586
947.361
947.133
946.902
946.67
946.436
946.204
945.976
945.756
945.551
945.367
945.212
945.099
945.009
944.94
944.893
944.876
970.653
970.32
969.992
969.672
969.363
969.064
968.775
968.496
968.228
967.969
967.719
967.479
967.248
967.026
966.812
966.606
966.409
966.219
966.036
965.86
965.691
965.527
965.368
965.214
965.065
964.919
964.777
964.638
964.502
964.369
964.238
964.11
963.983
963.857
963.732
963.609
963.486
963.364
963.242
963.12
962.998
962.876
962.753
962.63
962.506
962.381
962.255
962.128
962
961.87
961.738
961.605
961.47
961.333
961.193
961.052
960.908
960.761
960.612
960.459
960.304
960.145
959.983
959.817
959.647
959.473
959.294
959.111
958.923
958.729
958.53
958.325
958.114
957.897
957.672
957.439
957.199
956.949
956.688
956.417
956.132
955.833
955.518
955.184
954.828
954.448
954.04
953.602
953.132
952.627
952.088
951.517
950.918
950.299
949.672
949.06
948.545
948.083
947.706
947.471
976.574
976.369
976.169
975.976
975.79
975.612
975.44
975.276
975.117
974.965
974.819
974.679
974.544
974.413
974.288
974.167
974.051
973.938
973.83
973.724
973.622
973.523
973.426
973.333
973.241
973.152
973.065
972.979
972.896
972.814
972.733
972.655
972.577
972.501
972.426
972.351
972.278
972.206
972.135
972.065
971.995
971.926
971.858
971.79
971.723
971.657
971.591
971.525
971.46
971.395
971.331
971.267
971.203
971.139
971.075
971.012
970.949
970.886
970.823
970.76
970.698
970.635
970.574
970.511
970.448
970.385
970.32
970.254
970.187
970.119
970.048
969.976
969.901
969.823
969.743
969.658
969.57
969.477
969.379
969.274
969.163
969.045
968.918
968.782
968.635
968.478
968.298
968.091
967.852
967.574
967.251
966.877
966.442
965.939
965.353
964.667
963.861
963.046
962.3
961.769
983.151
983.045
982.94
982.84
982.744
982.651
982.562
982.477
982.394
982.315
982.238
982.164
982.092
982.024
981.957
981.893
981.831
981.771
981.714
981.658
981.605
981.554
981.505
981.458
981.414
981.371
981.331
981.293
981.257
981.223
981.191
981.162
981.135
981.11
981.088
981.067
981.049
981.033
981.02
981.008
980.999
980.993
980.988
980.986
980.986
980.988
980.993
980.999
981.009
981.021
981.035
981.052
981.071
981.093
981.118
981.146
981.177
981.211
981.248
981.288
981.332
981.38
981.431
981.487
981.547
981.613
981.685
981.763
981.847
981.939
982.038
982.145
982.261
982.387
982.522
982.668
982.826
982.995
983.177
983.373
983.582
983.805
984.043
984.294
984.56
984.84
985.143
985.472
985.833
986.23
986.66
987.125
987.63
988.18
988.777
989.425
990.12
990.852
991.586
992.257
988.384
988.343
988.305
988.271
988.241
988.214
988.19
988.169
988.151
988.135
988.121
988.11
988.101
988.094
988.088
988.085
988.084
988.084
988.086
988.089
988.094
988.101
988.11
988.12
988.132
988.146
988.161
988.178
988.196
988.217
988.239
988.264
988.29
988.318
988.348
988.38
988.415
988.451
988.49
988.532
988.575
988.622
988.671
988.722
988.777
988.834
988.894
988.957
989.024
989.094
989.167
989.243
989.323
989.407
989.495
989.586
989.681
989.781
989.885
989.994
990.107
990.226
990.351
990.481
990.617
990.76
990.909
991.066
991.23
991.402
991.582
991.77
991.968
992.174
992.391
992.616
992.852
993.097
993.352
993.616
993.89
994.172
994.461
994.758
995.059
995.365
995.673
995.981
996.288
996.589
996.89
997.194
997.496
997.792
998.08
998.354
998.61
998.841
999.037
999.186
992.193
992.186
992.183
992.186
992.191
992.201
992.213
992.229
992.247
992.267
992.29
992.315
992.342
992.372
992.403
992.436
992.471
992.508
992.547
992.588
992.63
992.674
992.719
992.767
992.816
992.866
992.918
992.972
993.027
993.084
993.143
993.203
993.265
993.328
993.394
993.461
993.529
993.6
993.672
993.746
993.822
993.9
993.98
994.062
994.145
994.231
994.319
994.409
994.501
994.595
994.691
994.79
994.891
994.994
995.1
995.207
995.318
995.43
995.546
995.664
995.784
995.906
996.031
996.159
996.288
996.42
996.554
996.69
996.829
996.969
997.11
997.253
997.398
997.543
997.689
997.835
997.981
998.127
998.271
998.413
998.553
998.689
998.822
998.949
999.071
999.187
999.295
999.396
999.488
999.57
999.643
999.706
999.76
999.807
999.848
999.883
999.911
999.934
999.95
999.961
994.885
994.892
994.904
994.922
994.943
994.967
994.995
995.024
995.056
995.091
995.127
995.166
995.206
995.248
995.292
995.338
995.386
995.435
995.486
995.538
995.592
995.647
995.704
995.762
995.822
995.883
995.945
996.009
996.074
996.14
996.207
996.275
996.345
996.415
996.487
996.56
996.633
996.707
996.783
996.859
996.936
997.013
997.091
997.17
997.249
997.329
997.408
997.489
997.569
997.65
997.731
997.811
997.892
997.973
998.053
998.134
998.214
998.294
998.373
998.451
998.529
998.606
998.682
998.757
998.831
998.904
998.975
999.044
999.112
999.178
999.242
999.304
999.364
999.422
999.477
999.53
999.581
999.628
999.673
999.715
999.754
999.79
999.823
999.853
999.88
999.903
999.923
999.94
999.955
999.966
999.975
999.982
999.987
999.991
999.993
999.995
999.997
999.998
999.999
999.999
996.65
996.662
996.68
996.702
996.727
996.755
996.786
996.818
996.853
996.889
996.927
996.967
997.008
997.051
997.095
997.14
997.187
997.235
997.284
997.334
997.386
997.438
997.491
997.545
997.6
997.656
997.712
997.769
997.826
997.884
997.943
998.002
998.061
998.12
998.179
998.239
998.299
998.358
998.417
998.476
998.535
998.593
998.651
998.708
998.765
998.821
998.876
998.931
998.984
999.037
999.088
999.138
999.187
999.235
999.282
999.327
999.371
999.414
999.455
999.494
999.532
999.568
999.603
999.636
999.668
999.697
999.726
999.752
999.777
999.801
999.823
999.843
999.862
999.879
999.895
999.91
999.923
999.935
999.945
999.955
999.963
999.97
999.977
999.982
999.986
999.99
999.993
999.995
999.997
999.998
999.999
999.999
999.999
1000
1000
1000
1000
1000
1000
1000
997.78
997.793
997.81
997.831
997.855
997.881
997.909
997.938
997.969
998.001
998.034
998.069
998.105
998.142
998.179
998.218
998.258
998.298
998.339
998.381
998.423
998.466
998.509
998.552
998.596
998.64
998.684
998.728
998.773
998.817
998.861
998.904
998.948
998.991
999.034
999.076
999.118
999.16
999.2
999.24
999.28
999.318
999.356
999.392
999.428
999.463
999.496
999.529
999.56
999.591
999.62
999.648
999.674
999.7
999.724
999.747
999.769
999.789
999.809
999.827
999.844
999.86
999.875
999.888
999.901
999.912
999.923
999.933
999.941
999.949
999.956
999.963
999.969
999.974
999.978
999.982
999.985
999.988
999.991
999.993
999.994
999.996
999.997
999.998
999.998
999.999
999.999
1000
1000
1000
1000
1000
1000
1000
1000
1000
1000
1000
1000
1000
998.524
998.535
998.55
998.567
998.586
998.607
998.629
998.653
998.677
998.702
998.729
998.756
998.783
998.812
998.841
998.871
998.901
998.932
998.963
998.994
999.026
999.058
999.09
999.122
999.154
999.186
999.218
999.25
999.282
999.313
999.344
999.375
999.405
999.435
999.464
999.493
999.521
999.548
999.575
999.601
999.626
999.65
999.674
999.696
999.718
999.739
999.758
999.777
999.795
999.812
999.829
999.844
999.858
999.871
999.884
999.896
999.906
999.916
999.926
999.934
999.942
999.949
999.955
999.961
999.966
999.971
999.975
999.979
999.982
999.985
999.988
999.99
999.992
999.993
999.995
999.996
999.997
999.997
999.998
999.999
999.999
999.999
999.999
1000
1000
1000
1000
1000
1000
1000
1000
1000
1000
1000
1000
1000
1000
1000
1000
1000
999.035
999.043
999.054
999.067
999.081
999.096
999.112
999.129
999.146
999.164
999.183
999.202
999.222
999.243
999.263
999.284
999.306
999.328
999.35
999.372
999.394
999.416
999.439
999.461
999.483
999.505
999.527
999.549
999.571
999.592
999.613
999.634
999.654
999.674
999.693
999.712
999.73
999.747
999.764
999.78
999.796
999.811
999.825
999.839
999.852
999.864
999.876
999.887
999.897
999.907
999.916
999.924
999.932
999.939
999.946
999.952
999.958
999.963
999.968
999.972
999.975
999.979
999.982
999.985
999.987
999.989
999.991
999.992
999.994
999.995
999.996
999.997
999.997
999.998
999.998
999.999
999.999
999.999
999.999
1000
1000
1000
1000
1000
1000
1000
1000
1000
1000
1000
1000
1000
1000
1000
1000
1000
1000
1000
1000
1000
999.396
999.401
999.409
999.417
999.426
999.436
999.446
999.457
999.468
999.48
999.493
999.505
999.518
999.532
999.546
999.559
999.574
999.588
999.602
999.617
999.632
999.646
999.661
999.676
999.69
999.705
999.719
999.733
999.747
999.761
999.774
999.787
999.8
999.812
999.824
999.835
999.847
999.857
999.868
999.877
999.887
999.896
999.904
999.912
999.92
999.927
999.934
999.94
999.946
999.951
999.957
999.961
999.965
999.969
999.973
999.976
999.979
999.982
999.984
999.987
999.989
999.99
999.992
999.993
999.994
999.995
999.996
999.997
999.997
999.998
999.998
999.999
999.999
999.999
999.999
1000
1000
1000
1000
1000
1000
1000
1000
1000
1000
1000
1000
1000
1000
1000
1000
1000
1000
1000
1000
1000
1000
1000
1000
1000
999.702
999.704
999.707
999.711
999.715
999.719
999.724
999.729
999.735
999.741
999.747
999.753
999.76
999.766
999.773
999.78
999.787
999.795
999.802
999.81
999.817
999.825
999.832
999.84
999.847
999.855
999.862
999.869
999.877
999.883
999.89
999.897
999.903
999.91
999.916
999.921
999.927
999.932
999.938
999.942
999.947
999.951
999.956
999.96
999.963
999.967
999.97
999.973
999.976
999.978
999.981
999.983
999.985
999.987
999.988
999.99
999.991
999.992
999.993
999.994
999.995
999.996
999.997
999.997
999.998
999.998
999.998
999.999
999.999
999.999
999.999
999.999
1000
1000
1000
1000
1000
1000
1000
1000
1000
1000
1000
1000
1000
1000
1000
1000
1000
1000
1000
1000
1000
1000
1000
1000
1000
1000
1000
1000
944.558
944.555
944.555
944.555
944.555
944.555
944.555
944.556
944.556
944.557
944.559
944.562
944.566
944.572
944.584
944.602
944.634
944.693
944.809
945.078
944.557
944.555
944.555
944.555
944.555
944.555
944.556
944.557
944.558
944.56
944.563
944.567
944.574
944.585
944.604
944.634
944.688
944.787
944.993
945.532
944.556
944.555
944.555
944.555
944.556
944.556
944.557
944.559
944.561
944.565
944.57
944.578
944.591
944.611
944.643
944.697
944.793
944.98
945.397
946.625
944.556
944.556
944.556
944.556
944.558
944.559
944.561
944.565
944.569
944.576
944.587
944.603
944.627
944.665
944.726
944.832
945.025
945.416
946.355
949.388
944.557
944.557
944.559
944.56
944.563
944.567
944.572
944.58
944.591
944.607
944.629
944.662
944.713
944.791
944.919
945.14
945.553
946.419
948.593
955.987
944.563
944.566
944.57
944.576
944.584
944.594
944.609
944.63
944.657
944.694
944.745
944.819
944.929
945.098
945.371
945.842
946.72
948.547
953.156
968.702
944.601
944.613
944.63
944.651
944.678
944.713
944.758
944.813
944.881
944.968
945.085
945.248
945.484
945.84
946.402
947.351
949.063
952.494
960.664
984.546
944.918
944.975
945.044
945.125
945.22
945.324
945.44
945.564
945.709
945.893
946.135
946.466
946.93
947.613
948.672
950.399
953.401
959.089
970.994
995.104
947.533
947.731
947.941
948.166
948.392
948.584
948.767
948.949
949.186
949.482
949.871
950.382
951.101
952.147
953.825
956.574
961.277
969.408
982.793
998.545
961.762
962.086
962.425
962.765
963.079
963.305
963.531
963.808
964.121
964.461
964.874
965.361
966.045
966.989
968.643
971.521
976.474
983.883
993.088
998.568
992.612
992.565
992.547
992.557
992.627
992.845
993.118
993.406
993.714
994.066
994.452
994.916
995.435
996.078
996.65
997.141
997.472
997.99
999.118
999.628
999.236
999.207
999.183
999.163
999.154
999.173
999.21
999.27
999.33
999.395
999.461
999.536
999.608
999.689
999.753
999.801
999.829
999.866
999.95
999.912
999.963
999.959
999.955
999.95
999.946
999.943
999.942
999.945
999.949
999.956
999.962
999.968
999.974
999.98
999.985
999.988
999.991
999.993
999.997
999.984
999.999
999.999
999.999
999.998
999.998
999.998
999.998
999.997
999.997
999.998
999.998
999.998
999.999
999.999
999.999
999.999
1000
1000
1000
999.999
1000
1000
1000
1000
1000
1000
1000
1000
1000
1000
1000
1000
1000
1000
1000
1000
1000
1000
1000
1000
1000
1000
1000
1000
1000
1000
1000
1000
1000
1000
1000
1000
1000
1000
1000
1000
1000
1000
1000
1000
1000
1000
1000
1000
1000
1000
1000
1000
1000
1000
1000
1000
1000
1000
1000
1000
1000
1000
1000
1000
1000
1000
1000
1000
1000
1000
1000
1000
1000
1000
1000
1000
1000
1000
1000
1000
1000
1000
1000
1000
1000
1000
1000
1000
1000
1000
1000
1000
1000
1000
1000
1000
1000
1000
1000
1000
1000
1000
1000
1000
1000
1000
1000
1000
1000
1000
1000
1000
1000
1000
1000
1000
1000
1000
1000
1000
1000
1000
1000
1000
944.555
944.555
944.555
944.555
944.555
944.555
944.555
944.555
944.555
944.555
944.555
944.555
944.555
944.555
944.555
944.555
944.555
944.555
944.555
944.555
944.555
944.555
944.555
944.555
944.555
944.555
944.555
944.555
944.555
944.555
944.555
944.555
944.555
944.555
944.555
944.555
944.555
944.555
944.555
944.555
944.555
944.555
944.555
944.555
944.555
944.555
944.555
944.555
944.555
944.555
944.555
944.555
944.555
944.555
944.555
944.555
944.555
944.555
944.555
944.555
944.555
944.555
944.555
944.555
944.555
944.555
944.555
944.555
944.555
944.555
944.555
944.555
944.555
944.555
944.555
944.555
944.555
944.555
944.555
944.555
944.555
944.555
944.555
944.555
944.555
944.555
944.555
944.555
944.555
944.555
944.555
944.555
944.555
944.555
944.555
944.555
944.555
944.555
944.555
944.555
944.555
944.555
944.555
944.555
944.555
944.555
944.555
944.555
944.555
944.555
944.555
944.555
944.555
944.555
944.555
944.555
944.555
944.555
944.555
944.555
944.555
944.555
944.555
944.555
944.555
944.555
944.555
944.555
944.555
944.555
944.555
944.555
944.555
944.555
944.555
944.555
944.555
944.555
944.555
944.555
944.555
944.555
944.555
944.555
944.555
944.555
944.555
944.555
944.555
944.555
944.555
944.555
944.555
944.555
944.555
944.555
944.555
944.555
944.555
944.555
944.555
944.555
944.555
944.555
944.555
944.555
944.555
944.555
944.555
944.555
944.555
944.555
944.555
944.555
944.555
944.555
944.555
944.555
944.555
944.555
944.555
944.555
944.555
944.555
944.555
944.555
944.555
944.555
944.555
944.555
944.555
944.555
944.555
944.555
944.555
944.555
944.555
944.555
944.555
944.555
944.555
944.555
944.555
944.555
944.555
944.555
944.555
944.555
944.555
944.555
944.555
944.555
944.555
944.555
944.555
944.555
944.555
944.555
944.555
944.555
944.555
944.555
944.555
944.555
944.555
944.555
944.555
944.555
944.555
944.555
944.555
944.555
944.555
944.555
944.555
944.555
944.555
944.555
944.555
944.555
944.555
944.555
944.555
944.555
944.555
944.555
944.555
944.555
944.555
944.555
944.555
944.555
944.555
944.555
944.555
944.555
944.555
944.555
944.555
944.555
944.555
944.555
944.555
944.555
944.555
944.555
944.555
944.555
944.555
944.555
944.555
944.555
944.555
944.555
944.555
944.555
944.555
944.555
944.555
944.555
944.555
944.555
944.555
944.555
944.555
944.555
944.555
944.555
944.555
944.555
944.555
944.555
944.555
944.555
944.555
944.555
944.555
944.555
944.555
944.555
944.555
944.555
944.555
944.555
944.555
944.555
944.555
944.555
944.555
944.555
944.555
944.555
944.555
944.555
944.555
944.555
944.555
944.555
944.555
944.555
944.555
944.555
944.555
944.555
944.555
944.555
944.555
944.555
944.555
944.555
944.555
944.555
944.555
944.555
944.555
944.555
944.555
944.555
944.555
944.555
944.555
944.555
944.555
944.555
944.555
944.555
944.555
944.555
944.555
944.555
944.555
944.555
944.555
944.555
944.555
944.555
944.555
944.555
944.555
944.555
944.555
944.555
944.555
944.555
944.555
944.555
944.555
944.555
944.555
944.555
944.555
944.555
944.555
944.555
944.555
944.555
944.555
944.555
944.555
944.555
944.555
944.555
944.555
944.555
944.555
944.555
944.555
944.555
944.555
944.555
944.555
944.555
944.555
944.555
944.555
944.555
944.555
944.555
944.555
944.555
944.555
944.555
944.555
944.555
944.555
944.555
944.555
944.555
944.555
944.555
944.555
944.555
944.555
944.555
944.555
944.555
944.555
944.555
944.555
944.555
944.555
944.555
944.555
944.555
944.555
944.555
944.555
944.555
944.555
944.555
944.555
944.555
944.555
944.555
944.555
944.555
944.555
944.555
944.555
944.555
944.555
944.555
944.555
944.555
944.555
944.555
944.555
944.555
944.555
944.555
944.555
944.555
944.555
944.555
944.555
944.555
944.555
944.555
944.555
944.555
944.555
944.555
944.555
944.555
944.555
944.555
944.555
944.555
944.555
944.555
944.555
944.555
944.555
944.555
944.555
944.555
944.555
944.555
944.555
944.555
944.555
944.555
944.555
944.555
944.555
944.555
944.555
944.555
944.555
944.555
944.555
944.555
944.555
944.555
944.555
944.555
944.555
944.555
944.555
944.555
944.555
944.555
944.555
944.555
944.555
944.555
944.555
944.555
944.555
944.555
944.555
944.555
944.555
944.555
944.555
944.555
944.555
944.555
944.555
944.555
944.555
944.555
944.555
944.555
944.555
944.555
944.555
944.555
944.555
944.555
944.555
944.555
944.555
944.555
944.555
944.555
944.555
944.555
944.555
944.555
944.555
944.555
944.555
944.555
944.555
944.555
944.555
944.555
944.555
944.555
944.555
944.555
944.555
944.555
944.555
944.555
944.555
944.555
944.555
944.555
944.555
944.555
944.555
944.555
944.555
944.555
944.555
944.555
944.555
944.555
944.555
944.555
944.555
944.555
944.555
944.555
944.555
944.555
944.555
944.555
944.555
944.555
944.555
944.555
944.555
944.555
944.555
944.555
944.555
944.555
944.555
944.555
944.555
944.555
944.555
944.555
944.555
944.555
944.555
944.555
944.555
944.555
944.555
944.555
944.555
944.555
944.555
944.555
944.555
944.555
944.555
944.555
944.555
944.555
944.555
944.555
944.555
944.555
944.555
944.555
944.555
944.555
944.555
944.555
944.555
944.555
944.555
944.555
944.555
944.555
944.555
944.555
944.555
944.555
944.555
944.555
944.555
944.555
944.555
944.555
944.555
944.555
944.555
944.555
944.555
944.555
944.555
944.555
944.555
944.555
944.555
944.555
944.555
944.555
944.555
944.555
944.555
944.555
944.555
944.555
944.555
944.555
944.555
944.555
944.555
944.555
944.555
944.555
944.555
944.555
944.555
944.555
944.555
944.555
944.555
944.555
944.555
944.555
944.555
944.555
944.555
944.555
944.555
944.555
944.555
944.555
944.555
944.555
944.555
944.555
944.555
944.555
944.555
944.555
944.555
944.555
944.555
944.555
944.555
944.555
944.555
944.555
944.555
944.555
944.555
944.555
944.555
944.555
944.555
944.555
944.555
944.555
944.555
944.555
944.555
944.555
944.555
944.555
944.555
944.555
944.555
944.555
944.555
944.555
944.555
944.555
944.555
944.555
944.555
944.555
944.555
944.555
944.555
944.555
944.555
944.555
944.555
944.555
944.555
944.555
944.555
944.555
944.555
944.555
944.555
944.555
944.555
944.555
944.555
944.555
944.555
944.555
944.555
944.555
944.555
944.555
944.555
944.555
944.555
944.555
944.555
944.555
944.555
944.555
944.555
944.555
944.555
944.555
944.555
944.555
944.555
944.555
944.555
944.555
944.555
944.555
944.555
944.555
944.555
944.555
944.555
944.555
944.555
944.555
944.555
944.555
944.555
944.555
944.555
944.555
944.555
944.555
944.555
944.555
944.555
944.555
944.555
944.555
944.555
944.555
944.555
944.555
944.555
944.555
944.555
944.555
944.555
944.555
944.555
944.555
944.555
944.555
944.555
944.555
944.555
944.555
944.555
944.555
944.555
944.555
944.555
944.555
944.555
944.555
944.555
944.555
944.555
944.555
944.555
944.555
944.555
944.555
944.555
944.555
944.555
944.555
944.555
944.555
944.555
944.555
944.555
944.555
944.555
944.555
944.555
944.555
944.555
944.555
944.555
944.555
944.555
944.555
944.555
944.555
944.555
944.555
944.555
944.555
944.555
944.555
944.555
944.555
944.555
944.555
944.555
944.555
944.555
944.555
944.555
944.555
944.555
944.555
944.555
944.555
944.555
944.555
944.555
944.555
944.555
944.555
944.555
944.555
944.555
944.555
944.555
944.555
944.555
944.555
944.555
944.555
944.555
944.555
944.555
944.555
944.555
944.555
944.555
944.555
944.555
944.555
944.555
944.555
944.555
944.555
944.555
944.555
944.555
944.555
944.555
944.555
944.555
944.555
944.555
944.555
944.555
944.555
944.555
944.555
944.555
944.555
944.555
944.555
944.555
944.555
944.555
944.555
944.555
944.555
944.555
944.555
944.555
944.555
944.555
944.555
944.555
944.555
944.555
944.555
944.555
944.555
944.555
944.555
944.555
944.555
944.555
944.555
944.555
944.555
944.555
944.555
944.555
944.555
944.555
944.555
944.555
944.555
944.555
944.555
944.555
944.555
944.555
944.555
944.555
944.555
944.555
944.555
944.555
944.555
944.555
944.555
944.555
944.555
944.555
944.555
944.555
944.555
944.555
944.555
944.555
944.555
944.555
944.555
944.555
944.555
944.555
944.555
944.555
944.555
944.555
944.555
944.555
944.555
944.555
944.555
944.555
944.555
944.555
944.555
944.555
944.555
944.555
944.555
944.555
944.555
944.555
944.555
944.555
944.555
944.555
944.555
944.555
944.555
944.555
944.555
944.555
944.555
944.555
944.555
944.555
944.555
944.555
944.555
944.555
944.555
944.555
944.555
944.555
944.555
944.555
944.555
944.555
944.555
944.555
944.555
944.555
944.555
944.555
944.555
944.555
944.555
944.555
944.555
944.555
944.555
944.555
944.555
944.555
944.555
944.555
944.555
944.555
944.555
944.555
944.555
944.555
944.555
944.555
944.555
944.555
944.555
944.555
944.555
944.555
944.555
944.555
944.555
944.555
944.555
944.555
944.555
944.555
944.555
944.555
944.555
944.555
944.555
944.555
944.555
944.555
944.555
944.555
944.555
944.555
944.555
944.555
944.555
944.555
944.555
944.555
944.555
944.555
944.555
944.555
944.555
944.555
944.555
944.555
944.555
944.555
944.555
944.555
944.555
944.555
944.555
944.555
944.555
944.555
944.555
944.555
944.555
944.555
944.555
944.555
944.555
944.555
944.555
944.555
944.555
944.555
944.555
944.555
944.555
944.555
944.555
944.555
944.555
944.555
944.555
944.555
944.555
944.555
944.555
944.555
944.555
944.555
944.555
944.555
944.555
944.555
944.555
944.555
944.555
944.555
944.555
944.555
944.555
944.555
944.555
944.555
944.555
944.555
944.555
944.555
944.555
944.555
944.555
944.555
944.555
944.555
944.555
944.555
944.555
944.555
944.555
944.555
944.555
944.555
944.555
944.555
944.555
944.555
944.555
944.555
944.555
944.555
944.555
944.555
944.555
944.555
944.555
944.555
944.555
944.555
944.555
944.555
944.555
944.555
944.555
944.555
944.555
944.555
944.555
944.555
944.555
944.555
944.555
944.555
944.555
944.555
944.555
944.555
944.555
944.555
944.555
944.555
944.555
944.555
944.555
944.555
944.555
944.555
944.555
944.555
944.555
944.555
944.555
944.555
944.555
944.555
944.555
944.555
944.555
944.555
944.555
944.555
944.555
944.555
944.555
944.555
944.555
944.555
944.555
944.555
944.555
944.555
944.555
944.555
944.555
944.555
944.555
944.555
944.555
944.555
944.555
944.555
944.555
944.555
944.555
944.555
944.555
944.555
944.555
944.555
944.555
944.555
944.555
944.555
944.555
944.555
944.555
944.555
944.555
944.555
944.555
944.555
944.555
944.555
944.555
944.555
944.555
944.555
944.555
944.555
944.555
944.555
944.555
944.555
944.555
944.555
944.555
944.555
944.555
944.555
944.555
944.555
944.555
944.555
944.555
944.555
944.555
944.555
944.555
944.555
944.555
944.555
944.555
944.555
944.555
944.555
944.555
944.555
944.555
944.555
944.555
944.555
944.555
944.555
944.555
944.555
944.555
944.555
944.555
944.555
944.555
944.555
944.555
944.555
944.555
944.555
944.555
944.555
944.555
944.555
944.555
944.555
944.555
944.555
944.555
944.555
944.555
944.555
944.555
944.555
944.555
944.555
944.555
944.555
944.555
944.555
944.555
944.555
944.555
944.555
944.555
944.555
944.555
944.555
944.555
944.555
944.555
944.555
944.555
944.555
944.555
944.555
944.555
944.555
944.555