/*--------------------------------*- C++ -*----------------------------------*\
| =========                 |                                                 |
| \\      /  F ield         | OpenFOAM: The Open Source CFD Toolbox           |
|  \\    /   O peration     | Version:  2.1.0                                 |
|   \\  /    A nd           | Web:      www.OpenFOAM.org                      |
|    \\/     M anipulation  |                                                 |
\*---------------------------------------------------------------------------*/
FoamFile
{
    version     2.0;
    format      ascii;
    class       volScalarField;
    location    "0.32";
    object      T;
}
// * * * * * * * * * * * * * * * * * * * * * * * * * * * * * * * * * * * * * //

dimensions      [0 0 0 1 0 0 0];

internalField   nonuniform List<scalar> 
6400
(
320.864
321.894
322.925
323.959
324.999
326.046
327.099
328.158
329.223
330.292
331.364
332.438
333.514
334.59
335.666
336.739
337.811
338.878
339.942
341
342.053
343.099
344.138
345.168
346.19
347.202
348.205
349.197
350.177
351.146
352.103
353.047
353.979
354.896
355.8
356.69
357.565
358.425
359.27
360.099
360.913
361.71
362.491
363.256
364.005
364.736
365.451
366.149
366.831
367.496
368.145
368.777
369.393
369.993
370.577
371.147
371.704
372.247
372.776
373.293
373.796
374.286
374.764
375.228
375.68
376.119
376.544
376.957
377.356
377.742
378.115
378.473
378.818
379.149
379.466
379.768
380.055
380.327
380.582
380.819
381.037
381.232
381.401
381.536
381.629
381.667
381.63
381.486
381.181
380.619
379.611
377.753
374.137
366.925
356.158
366.499
389.069
392.984
393.134
393.142
330.337
331.451
332.584
333.712
334.839
335.965
337.09
338.213
339.334
340.451
341.565
342.673
343.775
344.871
345.959
347.038
348.109
349.169
350.219
351.258
352.286
353.301
354.304
355.294
356.271
357.234
358.183
359.118
360.038
360.943
361.833
362.708
363.567
364.41
365.238
366.05
366.845
367.624
368.388
369.134
369.865
370.579
371.277
371.959
372.625
373.274
373.908
374.526
375.128
375.714
376.285
376.841
377.384
377.914
378.431
378.935
379.427
379.906
380.373
380.828
381.271
381.702
382.122
382.531
382.93
383.317
383.694
384.06
384.416
384.762
385.097
385.423
385.738
386.044
386.339
386.624
386.899
387.163
387.416
387.658
387.888
388.106
388.311
388.503
388.68
388.842
388.989
389.119
389.235
389.341
389.447
389.579
389.785
390.156
390.813
391.742
392.782
393.113
393.14
393.144
336.871
338.024
339.202
340.372
341.535
342.692
343.844
344.988
346.126
347.256
348.378
349.491
350.594
351.686
352.766
353.835
354.891
355.933
356.962
357.976
358.975
359.958
360.925
361.877
362.813
363.734
364.638
365.526
366.397
367.252
368.09
368.912
369.716
370.504
371.275
372.029
372.766
373.486
374.19
374.877
375.548
376.202
376.84
377.462
378.069
378.66
379.236
379.797
380.343
380.874
381.392
381.896
382.386
382.863
383.326
383.777
384.213
384.637
385.048
385.447
385.833
386.208
386.57
386.922
387.261
387.59
387.908
388.216
388.513
388.8
389.077
389.344
389.602
389.851
390.09
390.319
390.54
390.751
390.952
391.145
391.328
391.502
391.667
391.822
391.969
392.107
392.236
392.357
392.47
392.575
392.674
392.766
392.851
392.928
392.993
393.041
393.104
393.137
393.143
393.145
342.623
343.798
344.997
346.185
347.361
348.528
349.684
350.831
351.966
353.091
354.204
355.305
356.393
357.468
358.528
359.574
360.606
361.621
362.621
363.605
364.573
365.524
366.458
367.375
368.275
369.158
370.022
370.869
371.699
372.51
373.304
374.08
374.838
375.578
376.3
377.005
377.692
378.362
379.014
379.649
380.267
380.868
381.452
382.02
382.571
383.106
383.625
384.128
384.616
385.088
385.545
385.987
386.413
386.823
387.218
387.598
387.962
388.312
388.647
388.967
389.273
389.565
389.844
390.108
390.36
390.598
390.823
391.035
391.235
391.423
391.598
391.762
391.914
392.055
392.185
392.303
392.412
392.511
392.6
392.679
392.751
392.813
392.869
392.917
392.958
392.994
393.024
393.049
393.07
393.086
393.1
393.111
393.119
393.125
393.13
393.134
393.139
393.143
393.145
393.146
347.625
348.795
349.987
351.166
352.331
353.484
354.623
355.75
356.864
357.963
359.049
360.119
361.175
362.215
363.239
364.246
365.237
366.211
367.168
368.108
369.03
369.935
370.822
371.691
372.542
373.374
374.187
374.982
375.758
376.516
377.255
377.975
378.677
379.36
380.025
380.672
381.3
381.91
382.502
383.076
383.632
384.17
384.69
385.192
385.677
386.144
386.593
387.025
387.439
387.836
388.216
388.578
388.923
389.251
389.563
389.857
390.136
390.399
390.645
390.877
391.093
391.295
391.482
391.656
391.816
391.964
392.099
392.222
392.334
392.436
392.527
392.609
392.682
392.747
392.805
392.855
392.9
392.938
392.971
393
393.025
393.046
393.064
393.079
393.092
393.103
393.111
393.119
393.125
393.129
393.133
393.136
393.138
393.14
393.141
393.142
393.143
393.144
393.145
393.146
351.462
352.583
353.722
354.848
355.96
357.057
358.139
359.205
360.255
361.289
362.306
363.306
364.289
365.254
366.201
367.13
368.041
368.933
369.807
370.662
371.499
372.316
373.115
373.894
374.655
375.397
376.12
376.824
377.51
378.177
378.826
379.457
380.07
380.666
381.243
381.803
382.346
382.871
383.38
383.872
384.347
384.806
385.248
385.675
386.086
386.481
386.861
387.226
387.576
387.912
388.233
388.54
388.833
389.113
389.38
389.634
389.876
390.105
390.323
390.529
390.724
390.908
391.082
391.245
391.399
391.544
391.679
391.806
391.925
392.035
392.138
392.234
392.323
392.406
392.482
392.552
392.618
392.677
392.733
392.783
392.829
392.871
392.91
392.944
392.976
393.004
393.03
393.053
393.073
393.09
393.104
393.115
393.124
393.13
393.133
393.135
393.137
393.138
393.138
393.138
353.065
354.075
355.093
356.097
357.086
358.057
359.01
359.946
360.862
361.76
362.639
363.499
364.34
365.162
365.965
366.749
367.514
368.261
368.99
369.701
370.393
371.068
371.724
372.363
372.984
373.588
374.175
374.746
375.301
375.84
376.364
376.873
377.368
377.849
378.316
378.77
379.212
379.642
380.06
380.467
380.863
381.25
381.627
381.995
382.354
382.706
383.049
383.386
383.715
384.039
384.356
384.667
384.974
385.275
385.571
385.862
386.149
386.432
386.71
386.983
387.253
387.518
387.779
388.035
388.286
388.533
388.774
389.011
389.242
389.468
389.689
389.903
390.112
390.315
390.512
390.703
390.888
391.066
391.239
391.405
391.565
391.718
391.866
392.007
392.142
392.271
392.394
392.51
392.619
392.719
392.808
392.886
392.951
393.001
393.035
393.054
393.069
393.079
393.083
393.081
351.079
351.91
352.739
353.553
354.349
355.127
355.884
356.623
357.342
358.041
358.721
359.382
360.023
360.646
361.251
361.838
362.408
362.961
363.497
364.018
364.523
365.014
365.488
365.95
366.397
366.831
367.253
367.663
368.062
368.451
368.83
369.2
369.561
369.915
370.261
370.601
370.935
371.263
371.587
371.908
372.224
372.538
372.85
373.16
373.469
373.777
374.085
374.393
374.702
375.012
375.323
375.637
375.952
376.27
376.591
376.914
377.241
377.571
377.905
378.242
378.583
378.928
379.277
379.63
379.986
380.347
380.711
381.079
381.451
381.826
382.204
382.585
382.968
383.355
383.744
384.135
384.529
384.926
385.325
385.727
386.133
386.544
386.96
387.381
387.807
388.24
388.678
389.12
389.565
390.007
390.441
390.859
391.249
391.6
391.895
392.111
392.282
392.415
392.505
392.537
344.655
345.257
345.852
346.43
346.99
347.533
348.057
348.563
349.051
349.523
349.976
350.413
350.833
351.239
351.628
352.003
352.363
352.71
353.043
353.365
353.674
353.974
354.264
354.546
354.819
355.086
355.345
355.599
355.848
356.092
356.331
356.568
356.8
357.031
357.259
357.486
357.711
357.935
358.159
358.383
358.607
358.832
359.057
359.284
359.512
359.741
359.973
360.207
360.443
360.682
360.925
361.17
361.419
361.672
361.929
362.19
362.456
362.726
363.002
363.283
363.57
363.863
364.163
364.47
364.785
365.107
365.438
365.777
366.126
366.484
366.853
367.233
367.625
368.029
368.446
368.878
369.326
369.791
370.275
370.781
371.311
371.868
372.456
373.08
373.744
374.455
375.217
376.037
376.919
377.866
378.878
379.952
381.08
382.247
383.431
384.588
385.563
386.438
387.152
387.598
334.014
334.38
334.738
335.084
335.415
335.735
336.042
336.337
336.62
336.893
337.155
337.407
337.649
337.882
338.107
338.324
338.533
338.735
338.931
339.12
339.304
339.482
339.655
339.824
339.989
340.149
340.306
340.46
340.61
340.758
340.902
341.044
341.184
341.321
341.457
341.59
341.722
341.852
341.98
342.107
342.233
342.357
342.48
342.602
342.723
342.843
342.962
343.081
343.198
343.315
343.431
343.547
343.663
343.778
343.893
344.007
344.122
344.236
344.349
344.463
344.576
344.688
344.8
344.912
345.026
345.141
345.258
345.377
345.499
345.623
345.75
345.882
346.017
346.157
346.304
346.456
346.617
346.785
346.963
347.152
347.354
347.569
347.799
348.046
348.312
348.598
348.925
349.3
349.735
350.241
350.828
351.511
352.303
353.221
354.292
355.547
357.024
358.519
359.89
360.868
322.345
322.532
322.717
322.893
323.063
323.226
323.384
323.534
323.68
323.82
323.956
324.086
324.213
324.334
324.452
324.565
324.675
324.78
324.882
324.98
325.074
325.164
325.251
325.334
325.413
325.488
325.559
325.627
325.69
325.75
325.806
325.858
325.906
325.949
325.989
326.025
326.057
326.085
326.11
326.13
326.146
326.158
326.166
326.17
326.17
326.166
326.158
326.146
326.129
326.108
326.083
326.053
326.019
325.98
325.936
325.886
325.832
325.772
325.706
325.634
325.557
325.473
325.382
325.284
325.177
325.06
324.933
324.795
324.646
324.484
324.309
324.12
323.915
323.693
323.454
323.196
322.919
322.62
322.299
321.954
321.586
321.193
320.775
320.333
319.865
319.373
318.842
318.264
317.631
316.936
316.183
315.369
314.486
313.527
312.486
311.358
310.149
308.879
307.605
306.443
313.171
313.242
313.309
313.368
313.421
313.467
313.509
313.545
313.578
313.605
313.629
313.648
313.665
313.677
313.687
313.692
313.695
313.695
313.692
313.685
313.676
313.664
313.649
313.631
313.611
313.587
313.561
313.531
313.499
313.463
313.424
313.381
313.336
313.287
313.234
313.178
313.118
313.054
312.986
312.914
312.837
312.757
312.671
312.582
312.487
312.387
312.282
312.172
312.056
311.935
311.807
311.674
311.535
311.389
311.237
311.078
310.912
310.738
310.558
310.369
310.171
309.965
309.749
309.523
309.286
309.039
308.779
308.508
308.223
307.925
307.613
307.286
306.944
306.587
306.213
305.822
305.415
304.992
304.551
304.095
303.623
303.137
302.638
302.128
301.608
301.082
300.553
300.023
299.498
298.981
298.464
297.944
297.426
296.919
296.428
295.959
295.521
295.127
294.792
294.538
306.554
306.566
306.571
306.567
306.557
306.54
306.519
306.492
306.462
306.426
306.387
306.343
306.296
306.245
306.191
306.134
306.073
306.009
305.942
305.872
305.799
305.723
305.644
305.562
305.478
305.39
305.3
305.207
305.112
305.014
304.912
304.808
304.702
304.592
304.479
304.364
304.245
304.124
303.999
303.871
303.74
303.606
303.468
303.327
303.183
303.035
302.884
302.729
302.57
302.408
302.242
302.072
301.898
301.721
301.539
301.354
301.164
300.97
300.772
300.57
300.363
300.153
299.938
299.719
299.497
299.271
299.041
298.807
298.57
298.33
298.087
297.842
297.595
297.346
297.096
296.846
296.596
296.347
296.101
295.858
295.619
295.386
295.16
294.942
294.734
294.537
294.352
294.18
294.023
293.882
293.758
293.651
293.559
293.478
293.408
293.349
293.301
293.263
293.235
293.216
301.909
301.897
301.875
301.845
301.809
301.767
301.72
301.669
301.613
301.554
301.492
301.425
301.356
301.283
301.208
301.129
301.047
300.963
300.875
300.785
300.693
300.598
300.5
300.4
300.297
300.193
300.086
299.976
299.865
299.752
299.636
299.519
299.4
299.278
299.156
299.031
298.905
298.778
298.649
298.518
298.386
298.254
298.12
297.985
297.849
297.713
297.576
297.439
297.301
297.163
297.025
296.887
296.748
296.61
296.472
296.335
296.198
296.062
295.927
295.792
295.659
295.528
295.398
295.27
295.144
295.02
294.899
294.78
294.664
294.552
294.442
294.336
294.234
294.135
294.041
293.951
293.865
293.783
293.707
293.635
293.569
293.507
293.451
293.401
293.355
293.316
293.281
293.252
293.227
293.208
293.192
293.18
293.172
293.166
293.161
293.158
293.155
293.153
293.152
293.152
298.876
298.855
298.825
298.787
298.744
298.695
298.643
298.587
298.528
298.466
298.401
298.333
298.262
298.189
298.113
298.036
297.956
297.873
297.789
297.703
297.615
297.526
297.435
297.342
297.248
297.153
297.057
296.959
296.861
296.762
296.662
296.561
296.46
296.359
296.257
296.155
296.054
295.952
295.851
295.75
295.649
295.55
295.451
295.353
295.256
295.161
295.067
294.974
294.883
294.793
294.705
294.619
294.535
294.454
294.374
294.297
294.222
294.15
294.08
294.012
293.948
293.886
293.827
293.77
293.717
293.666
293.618
293.572
293.53
293.49
293.452
293.418
293.385
293.356
293.329
293.304
293.281
293.261
293.243
293.227
293.213
293.2
293.19
293.181
293.173
293.167
293.162
293.159
293.156
293.154
293.152
293.151
293.151
293.151
293.15
293.15
293.15
293.15
293.15
293.15
296.94
296.918
296.888
296.853
296.812
296.768
296.72
296.67
296.617
296.562
296.505
296.446
296.385
296.322
296.257
296.191
296.123
296.054
295.984
295.913
295.841
295.768
295.694
295.62
295.545
295.47
295.394
295.319
295.243
295.168
295.093
295.018
294.944
294.87
294.797
294.725
294.653
294.583
294.513
294.445
294.378
294.313
294.248
294.186
294.125
294.066
294.009
293.953
293.899
293.848
293.798
293.751
293.705
293.662
293.62
293.581
293.544
293.509
293.476
293.445
293.416
293.389
293.364
293.34
293.319
293.299
293.281
293.265
293.25
293.236
293.224
293.213
293.204
293.195
293.188
293.181
293.175
293.17
293.166
293.163
293.16
293.157
293.155
293.154
293.153
293.152
293.151
293.151
293.15
293.15
293.15
293.15
293.15
293.15
293.15
293.15
293.15
293.15
293.15
293.15
295.668
295.649
295.624
295.595
295.562
295.526
295.488
295.448
295.407
295.364
295.319
295.273
295.225
295.176
295.127
295.076
295.024
294.972
294.919
294.865
294.811
294.757
294.702
294.647
294.592
294.538
294.483
294.429
294.375
294.321
294.268
294.215
294.164
294.113
294.063
294.014
293.966
293.92
293.874
293.83
293.787
293.746
293.706
293.668
293.631
293.595
293.562
293.529
293.499
293.47
293.442
293.416
293.392
293.369
293.348
293.328
293.309
293.292
293.277
293.262
293.249
293.237
293.226
293.216
293.207
293.199
293.192
293.186
293.18
293.175
293.171
293.167
293.164
293.161
293.159
293.157
293.156
293.154
293.153
293.152
293.152
293.151
293.151
293.151
293.15
293.15
293.15
293.15
293.15
293.15
293.15
293.15
293.15
293.15
293.15
293.15
293.15
293.15
293.15
293.15
294.796
294.781
294.763
294.741
294.717
294.691
294.664
294.636
294.606
294.575
294.543
294.51
294.476
294.441
294.406
294.37
294.333
294.296
294.259
294.221
294.183
294.145
294.107
294.069
294.031
293.993
293.955
293.918
293.881
293.845
293.809
293.774
293.739
293.706
293.673
293.641
293.61
293.581
293.552
293.524
293.497
293.472
293.448
293.424
293.402
293.381
293.361
293.343
293.325
293.309
293.293
293.279
293.266
293.253
293.242
293.232
293.222
293.213
293.205
293.198
293.192
293.186
293.181
293.176
293.172
293.169
293.166
293.163
293.161
293.159
293.157
293.156
293.155
293.154
293.153
293.152
293.152
293.151
293.151
293.151
293.15
293.15
293.15
293.15
293.15
293.15
293.15
293.15
293.15
293.15
293.15
293.15
293.15
293.15
293.15
293.15
293.15
293.15
293.15
293.15
294.18
294.17
294.158
294.144
294.129
294.112
294.094
294.076
294.056
294.036
294.015
293.993
293.971
293.948
293.925
293.901
293.877
293.852
293.827
293.803
293.778
293.753
293.728
293.703
293.678
293.653
293.629
293.605
293.581
293.558
293.535
293.513
293.491
293.47
293.45
293.43
293.411
293.393
293.376
293.359
293.343
293.328
293.313
293.299
293.286
293.274
293.263
293.252
293.242
293.233
293.224
293.216
293.209
293.202
293.196
293.19
293.185
293.181
293.176
293.173
293.169
293.167
293.164
293.162
293.16
293.158
293.157
293.156
293.154
293.154
293.153
293.152
293.152
293.151
293.151
293.151
293.151
293.15
293.15
293.15
293.15
293.15
293.15
293.15
293.15
293.15
293.15
293.15
293.15
293.15
293.15
293.15
293.15
293.15
293.15
293.15
293.15
293.15
293.15
293.15
293.658
293.654
293.649
293.643
293.636
293.628
293.62
293.611
293.602
293.592
293.582
293.571
293.56
293.548
293.537
293.524
293.512
293.5
293.487
293.474
293.461
293.449
293.436
293.423
293.41
293.397
293.385
293.372
293.36
293.349
293.337
293.326
293.315
293.304
293.294
293.284
293.274
293.265
293.256
293.248
293.24
293.233
293.226
293.219
293.213
293.207
293.201
293.196
293.191
293.187
293.183
293.179
293.176
293.173
293.17
293.167
293.165
293.163
293.161
293.16
293.158
293.157
293.156
293.155
293.154
293.153
293.153
293.152
293.152
293.151
293.151
293.151
293.151
293.151
293.15
293.15
293.15
293.15
293.15
293.15
293.15
293.15
293.15
293.15
293.15
293.15
293.15
293.15
293.15
293.15
293.15
293.15
293.15
293.15
293.15
293.15
293.15
293.15
293.15
293.15
393.144
393.149
393.15
393.15
393.15
393.149
393.149
393.148
393.147
393.145
393.142
393.137
393.129
393.116
393.095
393.059
392.998
392.885
392.664
392.151
393.146
393.149
393.15
393.149
393.149
393.148
393.148
393.146
393.144
393.14
393.135
393.126
393.113
393.091
393.056
392.998
392.896
392.707
392.313
391.285
393.147
393.149
393.149
393.149
393.148
393.147
393.145
393.142
393.137
393.131
393.121
393.105
393.081
393.043
392.981
392.878
392.694
392.338
391.543
389.205
393.148
393.148
393.148
393.146
393.145
393.142
393.137
393.131
393.122
393.108
393.088
393.058
393.012
392.939
392.822
392.621
392.253
391.506
389.718
383.965
393.146
393.145
393.142
393.139
393.134
393.127
393.116
393.102
393.081
393.051
393.008
392.944
392.848
392.699
392.455
392.033
391.244
389.596
385.471
371.578
393.134
393.129
393.121
393.11
393.095
393.074
393.046
393.007
392.955
392.884
392.786
392.644
392.435
392.114
391.593
390.695
389.024
385.558
376.871
348.189
393.062
393.038
393.007
392.966
392.914
392.847
392.762
392.657
392.527
392.362
392.138
391.826
391.377
390.699
389.628
387.826
384.582
378.115
362.903
319.89
392.457
392.347
392.216
392.061
391.881
391.681
391.461
391.225
390.948
390.598
390.136
389.508
388.626
387.328
385.322
382.058
376.414
365.816
344.039
301.532
387.48
387.106
386.706
386.28
385.852
385.489
385.143
384.798
384.35
383.79
383.055
382.09
380.736
378.767
375.62
370.486
361.773
346.909
322.976
295.632
360.88
360.285
359.661
359.036
358.459
358.044
357.629
357.121
356.547
355.923
355.168
354.277
353.027
351.305
348.298
343.088
334.192
321.056
305.006
295.593
305.83
305.912
305.941
305.925
305.804
305.427
304.955
304.457
303.927
303.319
302.653
301.855
300.962
299.858
298.877
298.035
297.468
296.581
294.654
293.785
294.452
294.501
294.542
294.577
294.592
294.56
294.496
294.395
294.293
294.181
294.069
293.942
293.818
293.68
293.571
293.489
293.441
293.379
293.235
293.299
293.213
293.22
293.227
293.235
293.242
293.247
293.249
293.244
293.236
293.225
293.215
293.204
293.194
293.184
293.176
293.17
293.166
293.161
293.155
293.177
293.151
293.152
293.152
293.153
293.153
293.154
293.154
293.155
293.154
293.154
293.153
293.153
293.152
293.152
293.151
293.151
293.151
293.15
293.15
293.152
293.15
293.15
293.15
293.15
293.15
293.15
293.15
293.15
293.15
293.15
293.15
293.15
293.15
293.15
293.15
293.15
293.15
293.15
293.15
293.15
293.15
293.15
293.15
293.15
293.15
293.15
293.15
293.15
293.15
293.15
293.15
293.15
293.15
293.15
293.15
293.15
293.15
293.15
293.15
293.15
293.15
293.15
293.15
293.15
293.15
293.15
293.15
293.15
293.15
293.15
293.15
293.15
293.15
293.15
293.15
293.15
293.15
293.15
293.15
293.15
293.15
293.15
293.15
293.15
293.15
293.15
293.15
293.15
293.15
293.15
293.15
293.15
293.15
293.15
293.15
293.15
293.15
293.15
293.15
293.15
293.15
293.15
293.15
293.15
293.15
293.15
293.15
293.15
293.15
293.15
293.15
293.15
293.15
293.15
293.15
293.15
293.15
293.15
293.15
293.15
293.15
293.15
293.15
293.15
293.15
293.15
293.15
293.15
293.15
293.15
293.15
293.15
293.15
293.15
293.15
293.15
293.15
293.15
293.15
293.15
393.15
393.15
393.15
393.15
393.15
393.15
393.15
393.15
393.15
393.15
393.15
393.15
393.15
393.15
393.15
393.15
393.15
393.15
393.15
393.15
393.15
393.15
393.15
393.15
393.15
393.15
393.15
393.15
393.15
393.15
393.15
393.15
393.15
393.15
393.15
393.15
393.15
393.15
393.15
393.15
393.15
393.15
393.15
393.15
393.15
393.15
393.15
393.15
393.15
393.15
393.15
393.15
393.15
393.15
393.15
393.15
393.15
393.15
393.15
393.15
393.15
393.15
393.15
393.15
393.15
393.15
393.15
393.15
393.15
393.15
393.15
393.15
393.15
393.15
393.15
393.15
393.15
393.15
393.15
393.15
393.15
393.15
393.15
393.15
393.15
393.15
393.15
393.15
393.15
393.15
393.15
393.15
393.15
393.15
393.15
393.15
393.15
393.15
393.15
393.15
393.15
393.15
393.15
393.15
393.15
393.15
393.15
393.15
393.15
393.15
393.15
393.15
393.15
393.15
393.15
393.15
393.15
393.15
393.15
393.15
393.15
393.15
393.15
393.15
393.15
393.15
393.15
393.15
393.15
393.15
393.15
393.15
393.15
393.15
393.15
393.15
393.15
393.15
393.15
393.15
393.15
393.15
393.15
393.15
393.15
393.15
393.15
393.15
393.15
393.15
393.15
393.15
393.15
393.15
393.15
393.15
393.15
393.15
393.15
393.15
393.15
393.15
393.15
393.15
393.15
393.15
393.15
393.15
393.15
393.15
393.15
393.15
393.15
393.15
393.15
393.15
393.15
393.15
393.15
393.15
393.15
393.15
393.15
393.15
393.15
393.15
393.15
393.15
393.15
393.15
393.15
393.15
393.15
393.15
393.15
393.15
393.15
393.15
393.15
393.15
393.15
393.15
393.15
393.15
393.15
393.15
393.15
393.15
393.15
393.15
393.15
393.15
393.15
393.15
393.15
393.15
393.15
393.15
393.15
393.15
393.15
393.15
393.15
393.15
393.15
393.15
393.15
393.15
393.15
393.15
393.15
393.15
393.15
393.15
393.15
393.15
393.15
393.15
393.15
393.15
393.15
393.15
393.15
393.15
393.15
393.15
393.15
393.15
393.15
393.15
393.15
393.15
393.15
393.15
393.15
393.15
393.15
393.15
393.15
393.15
393.15
393.15
393.15
393.15
393.15
393.15
393.15
393.15
393.15
393.15
393.15
393.15
393.15
393.15
393.15
393.15
393.15
393.15
393.15
393.15
393.15
393.15
393.15
393.15
393.15
393.15
393.15
393.15
393.15
393.15
393.15
393.15
393.15
393.15
393.15
393.15
393.15
393.15
393.15
393.15
393.15
393.15
393.15
393.15
393.15
393.15
393.15
393.15
393.15
393.15
393.15
393.15
393.15
393.15
393.15
393.15
393.15
393.15
393.15
393.15
393.15
393.15
393.15
393.15
393.15
393.15
393.15
393.15
393.15
393.15
393.15
393.15
393.15
393.15
393.15
393.15
393.15
393.15
393.15
393.15
393.15
393.15
393.15
393.15
393.15
393.15
393.15
393.15
393.15
393.15
393.15
393.15
393.15
393.15
393.15
393.15
393.15
393.15
393.15
393.15
393.15
393.15
393.15
393.15
393.15
393.15
393.15
393.15
393.15
393.15
393.15
393.15
393.15
393.15
393.15
393.15
393.15
393.15
393.15
393.15
393.15
393.15
393.15
393.15
393.15
393.15
393.15
393.15
393.15
393.15
393.15
393.15
393.15
393.15
393.15
393.15
393.15
393.15
393.15
393.15
393.15
393.15
393.15
393.15
393.15
393.15
393.15
393.15
393.15
393.15
393.15
393.15
393.15
393.15
393.15
393.15
393.15
393.15
393.15
393.15
393.15
393.15
393.15
393.15
393.15
393.15
393.15
393.15
393.15
393.15
393.15
393.15
393.15
393.15
393.15
393.15
393.15
393.15
393.15
393.15
393.15
393.15
393.15
393.15
393.15
393.15
393.15
393.15
393.15
393.15
393.15
393.15
393.15
393.15
393.15
393.15
393.15
393.15
393.15
393.15
393.15
393.15
393.15
393.15
393.15
393.15
393.15
393.15
393.15
393.15
393.15
393.15
393.15
393.15
393.15
393.15
393.15
393.15
393.15
393.15
393.15
393.15
393.15
393.15
393.15
393.15
393.15
393.15
393.15
393.15
393.15
393.15
393.15
393.15
393.15
393.15
393.15
393.15
393.15
393.15
393.15
393.15
393.15
393.15
393.15
393.15
393.15
393.15
393.15
393.15
393.15
393.15
393.15
393.15
393.15
393.15
393.15
393.15
393.15
393.15
393.15
393.15
393.15
393.15
393.15
393.15
393.15
393.15
393.15
393.15
393.15
393.15
393.15
393.15
393.15
393.15
393.15
393.15
393.15
393.15
393.15
393.15
393.15
393.15
393.15
393.15
393.15
393.15
393.15
393.15
393.15
393.15
393.15
393.15
393.15
393.15
393.15
393.15
393.15
393.15
393.15
393.15
393.15
393.15
393.15
393.15
393.15
393.15
393.15
393.15
393.15
393.15
393.15
393.15
393.15
393.15
393.15
393.15
393.15
393.15
393.15
393.15
393.15
393.15
393.15
393.15
393.15
393.15
393.15
393.15
393.15
393.15
393.15
393.15
393.15
393.15
393.15
393.15
393.15
393.15
393.15
393.15
393.15
393.15
393.15
393.15
393.15
393.15
393.15
393.15
393.15
393.15
393.15
393.15
393.15
393.15
393.15
393.15
393.15
393.15
393.15
393.15
393.15
393.15
393.15
393.15
393.15
393.15
393.15
393.15
393.15
393.15
393.15
393.15
393.15
393.15
393.15
393.15
393.15
393.15
393.15
393.15
393.15
393.15
393.15
393.15
393.15
393.15
393.15
393.15
393.15
393.15
393.15
393.15
393.15
393.15
393.15
393.15
393.15
393.15
393.15
393.15
393.15
393.15
393.15
393.15
393.15
393.15
393.15
393.15
393.15
393.15
393.15
393.15
393.15
393.15
393.15
393.15
393.15
393.15
393.15
393.15
393.15
393.15
393.15
393.15
393.15
393.15
393.15
393.15
393.15
393.15
393.15
393.15
393.15
393.15
393.15
393.15
393.15
393.15
393.15
393.15
393.15
393.15
393.15
393.15
393.15
393.15
393.15
393.15
393.15
393.15
393.15
393.15
393.15
393.15
393.15
393.15
393.15
393.15
393.15
393.15
393.15
393.15
393.15
393.15
393.15
393.15
393.15
393.15
393.15
393.15
393.15
393.15
393.15
393.15
393.15
393.15
393.15
393.15
393.15
393.15
393.15
393.15
393.15
393.15
393.15
393.15
393.15
393.15
393.15
393.15
393.15
393.15
393.15
393.15
393.15
393.15
393.15
393.15
393.15
393.15
393.15
393.15
393.15
393.15
393.15
393.15
393.15
393.15
393.15
393.15
393.15
393.15
393.15
393.15
393.15
393.15
393.15
393.15
393.15
393.15
393.15
393.15
393.15
393.15
393.15
393.15
393.15
393.15
393.15
393.15
393.15
393.15
393.15
393.15
393.15
393.15
393.15
393.15
393.15
393.15
393.15
393.15
393.15
393.15
393.15
393.15
393.15
393.15
393.15
393.15
393.15
393.15
393.15
393.15
393.15
393.15
393.15
393.15
393.15
393.15
393.15
393.15
393.15
393.15
393.15
393.15
393.15
393.15
393.15
393.15
393.15
393.15
393.15
393.15
393.15
393.15
393.15
393.15
393.15
393.15
393.15
393.15
393.15
393.15
393.15
393.15
393.15
393.15
393.15
393.15
393.15
393.15
393.15
393.15
393.15
393.15
393.15
393.15
393.15
393.15
393.15
393.15
393.15
393.15
393.15
393.15
393.15
393.15
393.15
393.15
393.15
393.15
393.15
393.15
393.15
393.15
393.15
393.15
393.15
393.15
393.15
393.15
393.15
393.15
393.15
393.15
393.15
393.15
393.15
393.15
393.15
393.15
393.15
393.15
393.15
393.15
393.15
393.15
393.15
393.15
393.15
393.15
393.15
393.15
393.15
393.15
393.15
393.15
393.15
393.15
393.15
393.15
393.15
393.15
393.15
393.15
393.15
393.15
393.15
393.15
393.15
393.15
393.15
393.15
393.15
393.15
393.15
393.15
393.15
393.15
393.15
393.15
393.15
393.15
393.15
393.15
393.15
393.15
393.15
393.15
393.15
393.15
393.15
393.15
393.15
393.15
393.15
393.15
393.15
393.15
393.15
393.15
393.15
393.15
393.15
393.15
393.15
393.15
393.15
393.15
393.15
393.15
393.15
393.15
393.15
393.15
393.15
393.15
393.15
393.15
393.15
393.15
393.15
393.15
393.15
393.15
393.15
393.15
393.15
393.15
393.15
393.15
393.15
393.15
393.15
393.15
393.15
393.15
393.15
393.15
393.15
393.15
393.15
393.15
393.15
393.15
393.15
393.15
393.15
393.15
393.15
393.15
393.15
393.15
393.15
393.15
393.15
393.15
393.15
393.15
393.15
393.15
393.15
393.15
393.15
393.15
393.15
393.15
393.15
393.15
393.15
393.15
393.15
393.15
393.15
393.15
393.15
393.15
393.15
393.15
393.15
393.15
393.15
393.15
393.15
393.15
393.15
393.15
393.15
393.15
393.15
393.15
393.15
393.15
393.15
393.15
393.15
393.15
393.15
393.15
393.15
393.15
393.15
393.15
393.15
393.15
393.15
393.15
393.15
393.15
393.15
393.15
393.15
393.15
393.15
393.15
393.15
393.15
393.15
393.15
393.15
393.15
393.15
393.15
393.15
393.15
393.15
393.15
393.15
393.15
393.15
393.15
393.15
393.15
393.15
393.15
393.15
393.15
393.15
393.15
393.15
393.15
393.15
393.15
393.15
393.15
393.15
393.15
393.15
393.15
393.15
393.15
393.15
393.15
393.15
393.15
393.15
393.15
393.15
393.15
393.15
393.15
393.15
393.15
393.15
393.15
393.15
393.15
393.15
393.15
393.15
393.15
393.15
393.15
393.15
393.15
393.15
393.15
393.15
393.15
393.15
393.15
393.15
393.15
393.15
393.15
393.15
393.15
393.15
393.15
393.15
393.15
393.15
393.15
393.15
393.15
393.15
393.15
393.15
393.15
393.15
393.15
393.15
393.15
393.15
393.15
393.15
393.15
393.15
393.15
393.15
393.15
393.15
393.15
393.15
393.15
393.15
393.15
393.15
393.15
393.15
393.15
393.15
393.15
393.15
393.15
393.15
393.15
393.15
393.15
393.15
393.15
393.15
393.15
393.15
393.15
393.15
393.15
393.15
393.15
393.15
393.15
393.15
393.15
393.15
393.15
393.15
393.15
393.15
393.15
393.15
393.15
393.15
393.15
393.15
393.15
393.15
393.15
393.15
393.15
393.15
393.15
393.15
393.15
393.15
393.15
393.15
393.15
393.15
393.15
393.15
393.15
393.15
393.15
393.15
393.15
393.15
393.15
393.15
393.15
393.15
393.15
393.15
393.15
393.15
393.15
393.15
393.15
393.15
393.15
393.15
393.15
393.15
393.15
393.15
393.15
393.15
393.15
393.15
393.15
393.15
393.15
393.15
393.15
393.15
393.15
393.15
393.15
393.15
393.15
393.15
393.15
393.15
393.15
393.15
393.15
393.15
393.15
393.15
393.15
393.15
393.15
393.15
393.15
393.15
393.15
393.15
393.15
393.15
393.15
393.15
393.15
393.15
393.15
393.15
393.15
393.15
393.15
393.15
393.15
393.15
393.15
393.15
393.15
393.15
393.15
393.15
393.15
393.15
393.15
393.15
393.15
393.15
393.15
393.15
393.15
393.15
393.15
393.15
393.15
393.15
393.15
393.15
393.15
393.15
393.15
393.15
393.15
393.15
393.15
393.15
393.15
393.15
393.15
393.15
393.15
393.15
393.15
393.15
393.15
393.15
393.15
393.15
393.15
393.15
393.15
393.15
393.15
393.15
393.15
393.15
393.15
393.15
393.15
393.15
393.15
393.15
393.15
393.15
393.15
393.15
393.15
393.15
393.15
393.15
393.15
393.15
393.15
393.15
393.15
393.15
393.15
393.15
393.15
393.15
393.15
393.15
393.15
393.15
393.15
393.15
393.15
393.15
393.15
393.15
393.15
393.15
393.15
393.15
393.15
393.15
393.15
393.15
393.15
393.15
393.15
393.15
393.15
393.15
393.15
393.15
393.15
393.15
393.15
393.15
393.15
393.15
393.15
393.15
393.15
393.15
393.15
393.15
393.15
393.15
393.15
393.15
393.15
393.15
393.15
393.15
393.15
393.15
393.15
393.15
393.15
393.15
393.15
393.15
393.15
393.15
393.15
393.15
393.15
393.15
393.15
393.15
393.15
393.15
393.15
393.15
393.15
393.15
393.15
393.15
393.15
393.15
393.15
393.15
393.15
393.15
393.15
393.15
393.15
393.15
393.15
393.15
393.15
393.15
393.15
393.15
393.15
393.15
393.15
393.15
393.15
393.15
393.15
393.15
393.15
393.15
393.15
393.15
393.15
393.15
393.15
393.15
393.15
393.15
393.15
393.15
393.15
393.15
393.15
393.15
393.15
393.15
393.15
393.15
393.15
393.15
393.15