/*--------------------------------*- C++ -*----------------------------------*\
| =========                 |                                                 |
| \\      /  F ield         | OpenFOAM: The Open Source CFD Toolbox           |
|  \\    /   O peration     | Version:  2.1.0                                 |
|   \\  /    A nd           | Web:      www.OpenFOAM.org                      |
|    \\/     M anipulation  |                                                 |
\*---------------------------------------------------------------------------*/
FoamFile
{
    version     2.0;
    format      ascii;
    class       volScalarField;
    location    "0.05";
    object      C0;
}
// * * * * * * * * * * * * * * * * * * * * * * * * * * * * * * * * * * * * * //

dimensions      [0 0 0 0 0 0 0];

internalField   nonuniform List<scalar> 
6400
(
4.86339e-62
1.34584e-61
3.90826e-61
1.13276e-60
3.27236e-60
9.42166e-60
2.70347e-59
7.73086e-59
2.20307e-58
6.25608e-58
1.77024e-57
4.99111e-57
1.40211e-56
3.92441e-56
1.09436e-55
3.04036e-55
8.41464e-55
2.31985e-54
6.37031e-54
1.74219e-53
4.74492e-53
1.28682e-52
3.47469e-52
9.34058e-52
2.49938e-51
6.65624e-51
1.764e-50
4.6513e-50
1.22008e-49
3.18323e-49
8.25944e-49
2.13099e-48
5.46649e-48
1.39402e-47
3.53351e-47
8.90149e-47
2.22841e-46
5.54317e-46
1.37001e-45
3.36416e-45
8.20717e-45
1.98904e-44
4.78846e-44
1.14506e-43
2.71976e-43
6.41645e-43
1.50359e-42
3.49984e-42
8.09241e-42
1.85889e-41
4.24245e-41
9.62097e-41
2.16829e-40
4.85711e-40
1.0816e-39
2.39477e-39
5.27278e-39
1.15471e-38
2.5156e-38
5.45294e-38
1.17631e-37
2.52582e-37
5.39959e-37
1.14945e-36
2.43718e-36
5.14821e-36
1.08368e-35
2.27372e-35
4.75643e-35
9.92325e-35
2.06528e-34
4.28929e-34
8.89215e-34
1.84069e-33
3.80587e-33
7.86285e-33
1.62376e-32
3.35313e-32
6.92706e-32
1.43223e-31
2.96521e-31
6.15046e-31
1.27889e-30
2.66766e-30
5.58666e-30
1.1758e-29
2.49013e-29
5.31531e-29
1.14612e-28
2.50445e-28
5.5725e-28
1.27186e-27
3.012e-27
7.52654e-27
2.02679e-26
6.00943e-26
1.98636e-25
7.29006e-25
2.81643e-24
1.0077e-23
6.58086e-62
1.82912e-61
5.30953e-61
1.538e-60
4.44053e-60
1.27782e-59
3.66478e-59
1.0475e-58
2.98382e-58
8.47009e-58
2.39597e-57
6.7537e-57
1.89693e-56
5.30881e-56
1.48037e-55
4.11296e-55
1.13848e-54
3.13943e-54
8.62377e-54
2.35953e-53
6.42985e-53
1.74495e-52
4.71553e-52
1.2688e-51
3.39873e-51
9.06235e-51
2.40495e-50
6.35112e-50
1.66882e-49
4.36229e-49
1.13423e-48
2.93305e-48
7.5427e-48
1.92869e-47
4.90309e-47
1.23908e-46
3.11247e-46
7.77052e-46
1.92799e-45
4.75401e-45
1.16494e-44
2.83667e-44
6.86362e-44
1.65013e-43
3.94179e-43
9.35571e-43
2.20636e-42
5.1702e-42
1.20391e-41
2.78591e-41
6.4071e-41
1.46459e-40
3.32792e-40
7.51761e-40
1.68844e-39
3.77088e-39
8.37549e-39
1.85032e-38
4.06642e-38
8.89146e-38
1.93462e-37
4.18938e-37
9.03046e-37
1.93799e-36
4.14156e-36
8.81524e-36
1.86923e-35
3.94963e-35
8.31818e-35
1.74661e-34
3.65753e-34
7.64064e-34
1.59279e-33
3.31445e-33
6.88716e-33
1.42956e-32
2.96524e-32
6.14882e-32
1.27523e-31
2.6464e-31
5.49809e-31
1.1442e-30
2.3867e-30
4.99363e-30
1.04886e-29
2.21384e-29
4.70155e-29
1.00623e-28
2.17478e-28
4.76024e-28
1.05938e-27
2.41081e-27
5.65696e-27
1.38522e-26
3.59336e-26
1.00016e-25
2.97962e-25
9.29901e-25
2.87152e-24
7.93877e-24
8.47608e-62
2.35913e-61
6.84958e-61
1.98458e-60
5.73167e-60
1.64998e-59
4.73419e-59
1.35385e-58
3.85866e-58
1.09606e-57
3.10281e-57
8.75363e-57
2.46106e-56
6.89513e-56
1.92506e-55
5.35584e-55
1.48479e-54
4.10136e-54
1.12873e-53
3.09465e-53
8.45217e-53
2.29948e-52
6.23097e-52
1.68154e-51
4.51902e-51
1.20923e-50
3.22145e-50
8.54324e-50
2.25513e-49
5.92433e-49
1.5487e-48
4.02824e-48
1.04244e-47
2.6836e-47
6.87164e-47
1.74996e-46
4.43173e-46
1.11597e-45
2.79395e-45
6.95441e-45
1.72094e-44
4.23361e-44
1.03529e-43
2.51648e-43
6.07964e-43
1.4598e-42
3.48363e-42
8.26202e-42
1.94741e-41
4.562e-41
1.06216e-40
2.45801e-40
5.65395e-40
1.29277e-39
2.93846e-39
6.64019e-39
1.4919e-38
3.33305e-38
7.40506e-38
1.63627e-37
3.59645e-37
7.86413e-37
1.711e-36
3.70459e-36
7.98368e-36
1.71286e-35
3.65923e-35
7.78594e-35
1.65043e-34
3.48632e-34
7.34087e-34
1.54124e-33
3.22754e-33
6.74368e-33
1.40636e-32
2.92839e-32
6.09062e-32
1.26582e-31
2.62994e-31
5.46501e-31
1.13638e-30
2.3658e-30
4.93425e-30
1.0317e-29
2.16427e-29
4.55932e-29
9.65606e-29
2.05873e-28
4.42631e-28
9.61764e-28
2.11788e-27
4.74373e-27
1.08573e-26
2.55264e-26
6.19232e-26
1.55066e-25
3.97449e-25
1.0213e-24
2.52599e-24
5.60125e-24
1.02277e-61
2.84902e-61
8.27754e-61
2.40011e-60
6.93771e-60
1.99907e-59
5.74185e-59
1.64388e-58
4.69108e-58
1.33428e-57
3.78266e-57
1.06886e-56
3.01024e-56
8.44941e-56
2.36369e-55
6.59039e-55
1.83135e-54
5.07152e-54
1.39952e-53
3.84834e-53
1.0544e-52
2.87842e-52
7.82852e-52
2.12108e-51
5.72484e-51
1.53904e-50
4.12062e-50
1.0987e-49
2.91716e-49
7.71186e-49
2.02967e-48
5.31782e-48
1.38692e-47
3.60013e-47
9.30007e-47
2.3906e-46
6.11377e-46
1.55538e-45
3.93575e-45
9.90444e-45
2.4787e-44
6.16847e-44
1.52632e-43
3.75477e-43
9.1822e-43
2.232e-42
5.39248e-42
1.2948e-41
3.08964e-41
7.32643e-41
1.72641e-40
4.0426e-40
9.40677e-40
2.17516e-39
4.99833e-39
1.14146e-38
2.59074e-38
5.84444e-38
1.31056e-37
2.92149e-37
6.47504e-37
1.427e-36
3.12764e-36
6.81846e-36
1.47879e-35
3.19127e-35
6.854e-35
1.46537e-34
3.11948e-34
6.61395e-34
1.39703e-33
2.94066e-33
6.17032e-33
1.29102e-32
2.69442e-32
5.61113e-32
1.16639e-31
2.42108e-31
5.02008e-31
1.04023e-30
2.15504e-30
4.4657e-30
9.26083e-30
1.923e-29
4.00078e-29
8.3454e-29
1.74674e-28
3.67182e-28
7.76e-28
1.65078e-27
3.53951e-27
7.65988e-27
1.67518e-26
3.70437e-26
8.27414e-26
1.85915e-25
4.16845e-25
9.17015e-25
1.92128e-24
3.63179e-24
1.17429e-61
3.27389e-61
9.52025e-61
2.76303e-60
7.99583e-60
2.30682e-59
6.63457e-59
1.90226e-58
5.43691e-58
1.54898e-57
4.39908e-57
1.2454e-56
3.51475e-56
9.88744e-56
2.77235e-55
7.74887e-55
2.15904e-54
5.99606e-54
1.65969e-53
4.57847e-53
1.25877e-52
3.44904e-52
9.41782e-52
2.5625e-51
6.94739e-51
1.87678e-50
5.05099e-50
1.35424e-49
3.61702e-49
9.62284e-49
2.54991e-48
6.72936e-48
1.76848e-47
4.62787e-47
1.20577e-46
3.1274e-46
8.07366e-46
2.07422e-45
5.30228e-45
1.34832e-44
3.41039e-44
8.57919e-44
2.14617e-43
5.33821e-43
1.32001e-42
3.24446e-42
7.92564e-42
1.92398e-41
4.64078e-41
1.11217e-40
2.64792e-40
6.26286e-40
1.47149e-39
3.43437e-39
7.96243e-39
1.83383e-38
4.19572e-38
9.53687e-38
2.15372e-37
4.8327e-37
1.07759e-36
2.38799e-36
5.26001e-36
1.15181e-35
2.50776e-35
5.42977e-35
1.16938e-34
2.50553e-34
5.3421e-34
1.13371e-33
2.39538e-33
5.04022e-33
1.05644e-32
2.20641e-32
4.59299e-32
9.5324e-32
1.97305e-31
4.07417e-31
8.39538e-31
1.72696e-30
3.5474e-30
7.27896e-30
1.49249e-29
3.05912e-29
6.2702e-29
1.28569e-28
2.63831e-28
5.4202e-28
1.1152e-27
2.29857e-27
4.74646e-27
9.81756e-27
2.03261e-26
4.2058e-26
8.67216e-26
1.77355e-25
3.57093e-25
6.98218e-25
1.29423e-24
2.16948e-24
1.29754e-61
3.62043e-61
1.05379e-60
3.06174e-60
8.8705e-60
2.56234e-59
7.37981e-59
2.11922e-58
6.06663e-58
1.73133e-57
4.92617e-57
1.39742e-56
3.95203e-56
1.11424e-55
3.13178e-55
8.77513e-55
2.45123e-54
6.82606e-54
1.89502e-53
5.24459e-53
1.44677e-52
3.97811e-52
1.09035e-51
2.97874e-51
8.11032e-51
2.20078e-50
5.9517e-50
1.60395e-49
4.30704e-49
1.15245e-48
3.07263e-48
8.16089e-48
2.15898e-47
5.68961e-47
1.49338e-46
3.90322e-46
1.01578e-45
2.63161e-45
6.7857e-45
1.74101e-44
4.44383e-44
1.12824e-43
2.84881e-43
7.15251e-43
1.78528e-42
4.42916e-42
1.092e-41
2.67503e-41
6.50989e-41
1.57361e-40
3.77786e-40
9.00692e-40
2.13233e-39
5.01257e-39
1.16998e-38
2.71146e-38
6.23938e-38
1.42564e-37
3.23467e-37
7.28843e-37
1.63104e-36
3.62548e-36
8.00562e-36
1.75637e-35
3.82906e-35
8.29664e-35
1.787e-34
3.82685e-34
8.14974e-34
1.72634e-33
3.63821e-33
7.63003e-33
1.59275e-32
3.31018e-32
6.85088e-32
1.41232e-31
2.9008e-31
5.93747e-31
1.21138e-30
2.46408e-30
4.99816e-30
1.01119e-29
2.04081e-29
4.10942e-29
8.25698e-29
1.6556e-28
3.31276e-28
6.61434e-28
1.31751e-27
2.61711e-27
5.18083e-27
1.02101e-26
2.00002e-26
3.88535e-26
7.46135e-26
1.41006e-25
2.60437e-25
4.64574e-25
7.83171e-25
1.19173e-24
1.38968e-61
3.88008e-61
1.13043e-60
3.28821e-60
9.53641e-60
2.75792e-59
7.95339e-59
2.28688e-58
6.55579e-58
1.87403e-57
5.34224e-57
1.51834e-56
4.30175e-56
1.21521e-55
3.4233e-55
9.61389e-55
2.69148e-54
7.5131e-54
2.0912e-53
5.80408e-53
1.60593e-52
4.42915e-52
1.21789e-51
3.33916e-51
9.12565e-51
2.48574e-50
6.7505e-50
1.82721e-49
4.92879e-49
1.3251e-48
3.5506e-48
9.47995e-48
2.52171e-47
6.68271e-47
1.76426e-46
4.63937e-46
1.21496e-45
3.16819e-45
8.22455e-45
2.12495e-44
5.4628e-44
1.39708e-43
3.55365e-43
8.98833e-43
2.26012e-42
5.64839e-42
1.40266e-41
3.46034e-41
8.47866e-41
2.06299e-40
4.98368e-40
1.19515e-39
2.84487e-39
6.72087e-39
1.57574e-38
3.66625e-38
8.46522e-38
1.93973e-37
4.41118e-37
9.95655e-37
2.23071e-36
4.96137e-36
1.09557e-35
2.40225e-35
5.23115e-35
1.13149e-34
2.43134e-34
5.19114e-34
1.10149e-33
2.32316e-33
4.87127e-33
1.01568e-32
2.10621e-32
4.34475e-32
8.91709e-32
1.82119e-31
3.70196e-31
7.49066e-31
1.50896e-30
3.02661e-30
6.0449e-30
1.20227e-29
2.38119e-29
4.69627e-29
9.22211e-29
1.80278e-28
3.50723e-28
6.78752e-28
1.30596e-27
2.49611e-27
4.73419e-27
8.89707e-27
1.65368e-26
3.03265e-26
5.47066e-26
9.66535e-26
1.6614e-25
2.74788e-25
4.28118e-25
5.99614e-25
1.44952e-61
4.05003e-61
1.18075e-60
3.43726e-60
9.97867e-60
2.88866e-59
8.33771e-59
2.39953e-58
6.88761e-58
1.97188e-57
5.62919e-57
1.60211e-56
4.54637e-56
1.28654e-55
3.63036e-55
1.02147e-54
2.86539e-54
8.01443e-54
2.23536e-53
6.21669e-53
1.72401e-52
4.76704e-52
1.31435e-51
3.61327e-51
9.90253e-51
2.70575e-50
7.37141e-50
2.00205e-49
5.41986e-49
1.46234e-48
3.93237e-48
1.05392e-47
2.81483e-47
7.49028e-47
1.98574e-46
5.24446e-46
1.37957e-45
3.61403e-45
9.42674e-45
2.44761e-44
6.32442e-44
1.62587e-43
4.15745e-43
1.05713e-42
2.67223e-42
6.71324e-42
1.67563e-41
4.15419e-41
1.02269e-40
2.4994e-40
6.06267e-40
1.45928e-39
3.48484e-39
8.25546e-39
1.93988e-38
4.52123e-38
1.04516e-37
2.3964e-37
5.45011e-37
1.22956e-36
2.7519e-36
6.11085e-36
1.34651e-35
2.9445e-35
6.39109e-35
1.37709e-34
2.94605e-34
6.25862e-34
1.32053e-33
2.76767e-33
5.76303e-33
1.1924e-32
2.45184e-32
5.01099e-32
1.01805e-31
2.05626e-31
4.12943e-31
8.24583e-31
1.6373e-30
3.23279e-30
6.34691e-30
1.23893e-29
2.4042e-29
4.63703e-29
8.88641e-29
1.69143e-28
3.1959e-28
5.99043e-28
1.11297e-27
2.04741e-27
3.72439e-27
6.68846e-27
1.18347e-26
2.05831e-26
3.50889e-26
5.83863e-26
9.41756e-26
1.45661e-25
2.11447e-25
2.74749e-25
1.47606e-61
4.12633e-61
1.20355e-60
3.50504e-60
1.01815e-59
2.94936e-59
8.51887e-59
2.45365e-58
7.0501e-58
2.02031e-57
5.77194e-57
1.64441e-56
4.6721e-56
1.32367e-55
3.73933e-55
1.05337e-54
2.95907e-54
8.28834e-54
2.31524e-53
6.44921e-53
1.79122e-52
4.96161e-52
1.37041e-51
3.77348e-51
1.03619e-50
2.83746e-50
7.74596e-50
2.1083e-49
5.7204e-49
1.54691e-48
4.16951e-48
1.12013e-47
2.99895e-47
8.00077e-47
2.12664e-46
5.63149e-46
1.48543e-45
3.90216e-45
1.02073e-44
2.65815e-44
6.88951e-44
1.7767e-43
4.55757e-43
1.16256e-42
2.94798e-42
7.42884e-42
1.85977e-41
4.62371e-41
1.14122e-40
2.79549e-40
6.79409e-40
1.63789e-39
3.91586e-39
9.28304e-39
2.18185e-38
5.08396e-38
1.17438e-37
2.68936e-37
6.10574e-37
1.37438e-36
3.06757e-36
6.78964e-36
1.49046e-35
3.24541e-35
7.01061e-35
1.50259e-34
3.19584e-34
6.74603e-34
1.41348e-33
2.94015e-33
6.07207e-33
1.24521e-32
2.53588e-32
5.12901e-32
1.03035e-31
2.05591e-31
4.07471e-31
8.02154e-31
1.56843e-30
3.04562e-30
5.87254e-30
1.12415e-29
2.13578e-29
4.02595e-29
7.52594e-29
1.39438e-28
2.55868e-28
4.64621e-28
8.34025e-28
1.47814e-27
2.58259e-27
4.44047e-27
7.49762e-27
1.2401e-26
2.00336e-26
3.15005e-26
4.78184e-26
6.93294e-26
9.3965e-26
1.13682e-25
1.46873e-61
4.10663e-61
1.1982e-60
3.48955e-60
1.01371e-59
2.93771e-59
8.49011e-59
2.44706e-58
7.03413e-58
2.0163e-57
5.76338e-57
1.64282e-56
4.67005e-56
1.32378e-55
3.7418e-55
1.05456e-54
2.96453e-54
8.31182e-54
2.32349e-53
6.47662e-53
1.80036e-52
4.99089e-52
1.37946e-51
3.80179e-51
1.04491e-50
2.86398e-50
7.82546e-50
2.13145e-49
5.78827e-49
1.56692e-48
4.2278e-48
1.13689e-47
3.04683e-47
8.13713e-47
2.16521e-46
5.7396e-46
1.51551e-45
3.98531e-45
1.04356e-44
2.72049e-44
7.05875e-44
1.82234e-43
4.67967e-43
1.19494e-42
3.03305e-42
7.65009e-42
1.91668e-41
4.76825e-41
1.1774e-40
2.88465e-40
7.01015e-40
1.68931e-39
4.03587e-39
9.55731e-39
2.24309e-38
5.21719e-38
1.2025e-37
2.74659e-37
6.2169e-37
1.39461e-36
3.10074e-36
6.83376e-36
1.49308e-35
3.23439e-35
6.94765e-35
1.48004e-34
3.12719e-34
6.55432e-34
1.36283e-33
2.81148e-33
5.75502e-33
1.16898e-32
2.35632e-32
4.71352e-32
9.35714e-32
1.84339e-31
3.60367e-31
6.99016e-31
1.3452e-30
2.5678e-30
4.86081e-30
9.12213e-30
1.69648e-29
3.12502e-29
5.69839e-29
1.02788e-28
1.83258e-28
3.22601e-28
5.60035e-28
9.57362e-28
1.60874e-27
2.65183e-27
4.27805e-27
6.73486e-27
1.03096e-26
1.52748e-26
2.17649e-26
2.94598e-26
3.71058e-26
4.17316e-26
1.42887e-61
3.99415e-61
1.16525e-60
3.39394e-60
9.85863e-60
2.8562e-59
8.25568e-59
2.38027e-58
6.84246e-58
1.961e-57
5.60479e-57
1.59771e-56
4.54171e-56
1.28737e-55
3.63842e-55
1.02537e-54
2.88222e-54
8.08035e-54
2.25857e-53
6.29455e-53
1.74957e-52
4.84972e-52
1.34036e-51
3.6937e-51
1.01504e-50
2.78101e-50
7.5954e-50
2.06798e-49
5.61368e-49
1.51921e-48
4.09787e-48
1.10156e-47
2.95096e-47
7.87743e-47
2.09505e-46
5.55049e-46
1.46468e-45
3.84907e-45
1.00716e-44
2.62351e-44
6.80112e-44
1.75413e-43
4.49969e-43
1.14764e-42
2.90926e-42
7.32755e-42
1.83305e-41
4.5526e-41
1.12212e-40
2.74382e-40
6.65382e-40
1.59978e-39
3.81259e-39
9.00465e-39
2.10737e-38
4.88648e-38
1.12256e-37
2.55492e-37
5.761e-37
1.28704e-36
2.84897e-36
6.24913e-36
1.3584e-35
2.92654e-35
6.24944e-35
1.32291e-34
2.77625e-34
5.7765e-34
1.19173e-33
2.43795e-33
4.94565e-33
9.94913e-33
1.98477e-32
3.92639e-32
7.70211e-32
1.49804e-31
2.8886e-31
5.52111e-31
1.0458e-30
1.96263e-30
3.64792e-30
6.71262e-30
1.22224e-29
2.20079e-29
3.91599e-29
6.87986e-29
1.19223e-28
2.03547e-28
3.419e-28
5.6411e-28
9.1254e-28
1.44399e-27
2.2279e-27
3.33975e-27
4.84338e-27
6.75427e-27
8.9808e-27
1.12391e-26
1.29878e-26
1.344e-26
1.35904e-61
3.7972e-61
1.10728e-60
3.22443e-60
9.36481e-60
2.71238e-59
7.83619e-59
2.258e-58
6.48753e-58
1.85852e-57
5.30938e-57
1.51259e-56
4.29693e-56
1.2173e-55
3.43861e-55
9.68562e-55
2.72032e-54
7.61761e-54
2.12713e-53
5.92326e-53
1.64476e-52
4.55438e-52
1.25732e-51
3.46045e-51
9.49607e-51
2.59794e-50
7.08499e-50
1.92612e-49
5.22035e-49
1.41039e-48
3.79774e-48
1.01916e-47
2.72528e-47
7.26069e-47
1.92711e-46
5.09498e-46
1.34153e-45
3.5172e-45
9.18084e-45
2.38528e-44
6.16642e-44
1.58576e-43
4.05521e-43
1.03092e-42
2.6045e-42
6.53674e-42
1.62922e-41
4.03105e-41
9.89747e-41
2.41072e-40
5.82303e-40
1.39447e-39
3.31e-39
7.78604e-39
1.81472e-38
4.19044e-38
9.58594e-38
2.17228e-37
4.8764e-37
1.08439e-36
2.38888e-36
5.21362e-36
1.12732e-35
2.41513e-35
5.12682e-35
1.07843e-34
2.24798e-34
4.64376e-34
9.50685e-34
1.92886e-33
3.87847e-33
7.72874e-33
1.52625e-32
2.98662e-32
5.79066e-32
1.11226e-31
2.11612e-31
3.98681e-31
7.43596e-31
1.37253e-30
2.50608e-30
4.52412e-30
8.07e-30
1.42135e-29
2.46975e-29
4.22957e-29
7.13068e-29
1.18188e-28
1.92283e-28
3.06507e-28
4.7768e-28
7.25929e-28
1.07227e-27
1.53212e-27
2.10688e-27
2.76861e-27
3.44354e-27
4.00207e-27
4.27591e-27
4.11607e-27
1.26415e-61
3.53013e-61
1.02862e-60
2.99332e-60
8.68859e-60
2.51505e-59
7.25933e-59
2.08946e-58
5.99718e-58
1.71651e-57
4.89902e-57
1.39423e-56
3.95667e-56
1.11945e-55
3.1583e-55
8.88605e-55
2.49231e-54
6.96813e-54
1.94261e-53
5.40067e-53
1.49692e-52
4.13588e-52
1.13925e-51
3.12858e-51
8.56415e-51
2.33684e-50
6.35629e-50
1.7233e-49
4.65741e-49
1.25467e-48
3.36825e-48
9.0106e-48
2.40167e-47
6.37709e-47
1.68669e-46
4.4431e-46
1.16545e-45
3.0435e-45
7.91159e-45
2.04654e-44
5.26637e-44
1.34777e-43
3.42935e-43
8.67294e-43
2.17942e-42
5.43993e-42
1.34827e-41
3.31703e-41
8.09795e-41
1.9612e-40
4.71049e-40
1.12175e-39
2.64798e-39
6.19491e-39
1.43612e-38
3.29862e-38
7.50611e-38
1.69205e-37
3.77843e-37
8.35792e-37
1.83135e-36
3.97498e-36
8.54656e-36
1.82032e-35
3.84068e-35
8.02747e-35
1.66212e-34
3.40923e-34
6.92715e-34
1.39426e-33
2.77974e-33
5.48918e-33
1.07352e-32
2.07903e-32
3.98649e-32
7.56681e-32
1.42141e-31
2.64169e-31
4.85561e-31
8.82299e-31
1.58408e-30
2.80841e-30
4.91318e-30
8.47458e-30
1.43981e-29
2.40676e-29
3.95299e-29
6.36973e-29
1.00518e-28
1.55019e-28
2.33065e-28
3.40601e-28
4.82091e-28
6.57939e-28
8.59653e-28
1.06706e-27
1.24541e-27
1.3496e-27
1.33958e-27
1.20558e-27
1.14934e-61
3.20743e-61
9.33892e-61
2.71498e-60
7.8712e-60
2.27559e-59
6.56001e-59
1.88573e-58
5.40541e-58
1.54509e-57
4.40358e-57
1.25131e-56
3.54549e-56
1.00152e-55
2.82055e-55
7.91996e-55
2.2169e-54
6.18647e-54
1.72094e-53
4.77209e-53
1.31912e-52
3.63419e-52
9.98009e-52
2.73188e-51
7.45327e-51
2.02651e-50
5.49164e-50
1.48318e-49
3.99207e-49
1.07098e-48
2.86282e-48
7.62308e-48
2.02224e-47
5.34397e-47
1.40635e-46
3.68501e-46
9.61364e-46
2.49668e-45
6.45219e-45
1.65873e-44
4.24093e-44
1.0781e-43
2.72432e-43
6.84132e-43
1.70678e-42
4.22906e-42
1.04041e-41
2.54061e-41
6.1563e-41
1.47992e-40
3.52848e-40
8.34201e-40
1.95524e-39
4.54253e-39
1.04592e-38
2.38643e-38
5.39511e-38
1.20842e-37
2.6815e-37
5.89459e-37
1.2836e-36
2.76882e-36
5.91605e-36
1.25208e-35
2.62473e-35
5.4497e-35
1.12068e-34
2.28238e-34
4.60328e-34
9.19363e-34
1.81805e-33
3.55936e-33
6.898e-33
1.32307e-32
2.51106e-32
4.71446e-32
8.75336e-32
1.60666e-31
2.914e-31
5.21977e-31
9.22882e-31
1.60942e-30
2.7661e-30
4.68085e-30
7.7904e-30
1.27354e-29
2.0419e-29
3.2053e-29
4.91626e-29
7.3504e-29
1.06832e-28
1.50455e-28
2.04537e-28
2.67226e-28
3.32762e-28
3.91485e-28
4.30356e-28
4.36417e-28
4.03481e-28
3.39601e-28
1.01967e-61
2.84332e-61
8.27114e-61
2.40154e-60
6.95302e-60
2.00725e-59
5.7781e-59
1.6584e-58
4.74598e-58
1.35423e-57
3.85271e-57
1.09274e-56
3.08977e-56
8.71009e-56
2.44762e-55
6.85586e-55
1.91427e-54
5.32785e-54
1.4779e-53
4.0854e-53
1.12551e-52
3.09013e-52
8.45453e-52
2.30513e-51
6.2631e-51
1.69556e-50
4.57391e-50
1.22946e-49
3.29252e-49
8.78449e-49
2.33483e-48
6.18154e-48
1.6299e-47
4.27948e-47
1.11879e-46
2.9117e-46
7.54285e-46
1.94457e-45
4.98665e-45
1.27166e-44
3.22434e-44
8.12693e-44
2.03578e-43
5.06694e-43
1.25275e-42
3.07587e-42
7.49806e-42
1.81424e-41
4.35614e-41
1.0377e-40
2.45199e-40
5.74585e-40
1.33508e-39
3.07544e-39
7.0226e-39
1.58937e-38
3.56487e-38
7.9234e-38
1.74499e-37
3.80766e-37
8.23143e-37
1.76286e-36
3.73994e-36
7.85933e-36
1.6359e-35
3.37245e-35
6.88527e-35
1.39202e-34
2.7866e-34
5.5228e-34
1.08352e-33
2.10398e-33
4.04282e-33
7.68542e-33
1.44502e-32
2.68636e-32
4.93601e-32
8.96021e-32
1.60609e-31
2.84099e-31
4.95589e-31
8.51872e-31
1.44153e-30
2.39884e-30
3.92068e-30
6.28449e-30
9.86262e-30
1.51243e-29
2.26112e-29
3.28694e-29
4.63193e-29
6.30548e-29
8.25948e-29
1.03646e-28
1.23521e-28
1.38351e-28
1.43879e-28
1.3704e-28
1.1816e-28
9.26596e-29
8.79523e-62
2.45011e-61
7.11903e-61
2.06436e-60
5.96854e-60
1.72056e-59
4.945e-59
1.41688e-58
4.04738e-58
1.15265e-57
3.27253e-57
9.26194e-57
2.6129e-56
7.3479e-56
2.05961e-55
5.75363e-55
1.60189e-54
4.44436e-54
1.22875e-53
3.38499e-53
9.29067e-53
2.54072e-52
6.9225e-52
1.87909e-51
5.0814e-51
1.36883e-50
3.67306e-50
9.81766e-50
2.61377e-49
6.92978e-49
1.82956e-48
4.80993e-48
1.25901e-47
3.28036e-47
8.50717e-47
2.19564e-46
5.6384e-46
1.4403e-45
3.65836e-45
9.23796e-45
2.31883e-44
5.78479e-44
1.43399e-43
3.53145e-43
8.63798e-43
2.09811e-42
5.0595e-42
1.21103e-41
2.87664e-41
6.77985e-41
1.58519e-40
3.67623e-40
8.45508e-40
1.92828e-39
4.36018e-39
9.77405e-39
2.17188e-38
4.78352e-38
1.04417e-37
2.25873e-37
4.84169e-37
1.02833e-36
2.16391e-36
4.51105e-36
9.31563e-36
1.90546e-35
3.86007e-35
7.74367e-35
1.53815e-34
3.02471e-34
5.88749e-34
1.13409e-33
2.16141e-33
4.07455e-33
7.59513e-33
1.3994e-32
2.54749e-32
4.57963e-32
8.12535e-32
1.42186e-31
2.45209e-31
4.1638e-31
6.9545e-31
1.14114e-30
1.83696e-30
2.89625e-30
4.46403e-30
6.71132e-30
9.81665e-30
1.39287e-29
1.91075e-29
2.52472e-29
3.20022e-29
3.87463e-29
4.44439e-29
4.76745e-29
4.71723e-29
4.23906e-29
3.41207e-29
2.47453e-29
7.33157e-62
2.04021e-61
5.9211e-61
1.7149e-60
4.95142e-60
1.42524e-59
4.08963e-59
1.1698e-58
3.33556e-58
9.48095e-58
2.68622e-57
7.58597e-57
2.1352e-56
5.98967e-56
1.67449e-55
4.66477e-55
1.29481e-54
3.58083e-54
9.86593e-54
2.70799e-53
7.40392e-53
2.01637e-52
5.46974e-52
1.47778e-51
3.9761e-51
1.06535e-50
2.84242e-50
7.55122e-50
1.9973e-49
5.25886e-49
1.37824e-48
3.59505e-48
9.33229e-48
2.41048e-47
6.19415e-47
1.58328e-46
4.02476e-46
1.01721e-45
2.55546e-45
6.38074e-45
1.58332e-44
3.90385e-44
9.5625e-44
2.32663e-43
5.62186e-43
1.34882e-42
3.21271e-42
7.59559e-42
1.7822e-41
4.14946e-41
9.58546e-41
2.19666e-40
4.99337e-40
1.12578e-39
2.5171e-39
5.5807e-39
1.22681e-38
2.6738e-38
5.777e-38
1.23726e-37
2.62645e-37
5.5257e-37
1.15207e-36
2.38011e-36
4.87188e-36
9.8793e-36
1.9844e-35
3.9477e-35
7.77685e-35
1.51682e-34
2.92851e-34
5.59559e-34
1.05783e-33
1.978e-33
3.65694e-33
6.6821e-33
1.20616e-32
2.14961e-32
3.78005e-32
6.55392e-32
1.11945e-31
1.88182e-31
3.10981e-31
5.04543e-31
8.02421e-31
1.24872e-30
1.89747e-30
2.80842e-30
4.03717e-30
5.61812e-30
7.54066e-30
9.72284e-30
1.19915e-29
1.40822e-29
1.56729e-29
1.62307e-29
1.54027e-29
1.31461e-29
9.90197e-30
6.57588e-30
5.8459e-62
1.6251e-61
4.71206e-61
1.36337e-60
3.93211e-60
1.13042e-59
3.23928e-59
9.25221e-59
2.63406e-58
7.47438e-58
2.11384e-57
5.95798e-57
1.67351e-56
4.68415e-56
1.30638e-55
3.62993e-55
1.00479e-54
2.77056e-54
7.60932e-54
2.08148e-53
5.67038e-53
1.53827e-52
4.15528e-52
1.11758e-51
2.99237e-51
7.97589e-51
2.1161e-50
5.58784e-50
1.46838e-49
3.83934e-49
9.98726e-49
2.58443e-48
6.65193e-48
1.70268e-47
4.33364e-47
1.09654e-46
2.75785e-46
6.89283e-46
1.7118e-45
4.22384e-45
1.03542e-44
2.52128e-44
6.0976e-44
1.46442e-43
3.49207e-43
8.26703e-43
1.94272e-42
4.53126e-42
1.04888e-41
2.40933e-41
5.49148e-41
1.24185e-40
2.78614e-40
6.20087e-40
1.36895e-39
2.99759e-39
6.50994e-39
1.40206e-38
2.99438e-38
6.34107e-38
1.33137e-37
2.77123e-37
5.718e-37
1.1694e-36
2.37016e-36
4.76026e-36
9.47237e-36
1.86722e-35
3.64557e-35
7.04836e-35
1.34918e-34
2.55626e-34
4.79257e-34
8.8882e-34
1.62995e-33
2.95434e-33
5.28995e-33
9.35182e-33
1.63119e-32
2.80506e-32
4.75145e-32
7.9197e-32
1.29739e-31
2.08599e-31
3.28645e-31
5.06384e-31
7.61362e-31
1.11404e-30
1.58141e-30
2.1699e-30
2.86644e-30
3.63015e-30
4.38838e-30
5.04148e-30
5.48715e-30
5.54636e-30
5.10723e-30
4.18482e-30
2.96903e-30
1.78882e-30
4.39743e-62
1.22057e-61
3.53771e-61
1.02314e-60
2.94927e-60
8.47321e-60
2.42625e-59
6.92418e-59
1.96942e-58
5.5825e-58
1.57695e-57
4.43902e-57
1.24511e-56
3.47972e-56
9.68849e-56
2.68718e-55
7.42368e-55
2.04262e-54
5.5971e-54
1.52723e-53
4.14924e-53
1.12231e-52
3.02196e-52
8.09935e-52
2.16045e-51
5.73481e-51
1.51471e-50
3.98033e-50
1.04044e-49
2.70487e-49
6.9929e-49
1.79757e-48
4.59373e-48
1.16688e-47
2.94575e-47
7.38914e-47
1.84137e-46
4.55799e-46
1.12059e-45
2.73612e-45
6.6342e-45
1.59717e-44
3.81739e-44
9.05697e-44
2.13282e-43
4.98468e-43
1.15611e-42
2.6608e-42
6.07647e-42
1.37689e-41
3.09556e-41
6.9049e-41
1.52805e-40
3.35479e-40
7.30675e-40
1.57871e-39
3.3836e-39
7.19346e-39
1.5169e-38
3.17255e-38
6.58056e-38
1.35358e-37
2.7608e-37
5.58295e-37
1.11923e-36
2.22407e-36
4.38009e-36
8.54782e-36
1.65267e-35
3.16514e-35
6.00303e-35
1.12721e-34
2.09488e-34
3.85194e-34
7.00467e-34
1.25917e-33
2.23635e-33
3.92187e-33
6.78649e-33
1.15786e-32
1.94595e-32
3.21823e-32
5.23103e-32
8.34511e-32
1.30447e-31
1.99409e-31
2.97412e-31
4.31595e-31
6.07377e-31
8.25686e-31
1.07963e-30
1.35203e-30
1.61545e-30
1.83369e-30
1.97135e-30
1.97249e-30
1.79053e-30
1.43234e-30
9.70668e-31
5.28082e-31
3.18523e-62
8.8014e-62
2.55171e-61
7.38298e-61
2.12901e-60
6.11861e-60
1.7525e-59
5.00246e-59
1.42304e-58
4.03404e-58
1.13954e-57
3.20751e-57
8.99549e-57
2.51343e-56
6.99609e-56
1.93973e-55
5.35643e-55
1.47305e-54
4.0339e-54
1.0999e-53
2.98575e-53
8.0682e-53
2.17005e-52
5.80864e-52
1.54715e-51
4.1001e-51
1.08097e-50
2.83479e-50
7.39343e-50
1.9174e-49
4.94378e-49
1.26711e-48
3.22781e-48
8.17082e-48
2.05498e-47
5.13398e-47
1.27386e-46
3.13872e-46
7.67895e-46
1.86523e-45
4.49766e-45
1.07647e-44
2.5569e-44
6.02658e-44
1.40936e-43
3.26984e-43
7.52568e-43
1.71812e-42
3.89075e-42
8.73911e-42
1.94692e-41
4.30204e-41
9.42854e-41
2.04956e-40
4.41907e-40
9.45053e-40
2.00466e-39
4.21775e-39
8.80184e-39
1.82183e-38
3.73995e-38
7.61428e-38
1.53733e-37
3.07786e-37
6.10983e-37
1.20243e-36
2.34575e-36
4.53557e-36
8.69028e-36
1.64968e-35
3.1019e-35
5.77558e-35
1.06455e-34
1.94169e-34
3.50312e-34
6.24868e-34
1.10141e-33
1.9172e-33
3.29344e-33
5.57891e-33
9.31054e-33
1.52923e-32
2.469e-32
3.91309e-32
6.07804e-32
9.23456e-32
1.36928e-31
1.97614e-31
2.76669e-31
3.74295e-31
4.8715e-31
6.07381e-31
7.23333e-31
8.19513e-31
8.79698e-31
8.79744e-31
7.97885e-31
6.34812e-31
4.19805e-31
2.05867e-31
2.57467e-23
2.44338e-23
2.16005e-23
1.88161e-23
1.63256e-23
1.41652e-23
1.23291e-23
1.07937e-23
9.52555e-24
8.48627e-24
7.63662e-24
6.93918e-24
6.3597e-24
5.86711e-24
5.43274e-24
5.02959e-24
4.63299e-24
4.22516e-24
3.81019e-24
3.45855e-24
1.59764e-23
1.52583e-23
1.31988e-23
1.11623e-23
9.41439e-24
7.96876e-24
6.79032e-24
5.83778e-24
5.07195e-24
4.45753e-24
3.96367e-24
3.5639e-24
3.23574e-24
2.95994e-24
2.71956e-24
2.49939e-24
2.28626e-24
2.07167e-24
1.85977e-24
1.68846e-24
9.51629e-24
9.0425e-24
7.721e-24
6.39374e-24
5.26885e-24
4.3624e-24
3.64441e-24
3.07921e-24
2.63497e-24
2.28522e-24
2.00844e-24
1.78728e-24
1.60778e-24
1.4585e-24
1.32975e-24
1.21321e-24
1.10204e-24
9.92308e-25
8.86805e-25
8.04484e-25
5.39638e-24
5.0692e-24
4.28642e-24
3.49856e-24
2.83342e-24
2.30438e-24
1.89268e-24
1.57457e-24
1.32885e-24
1.13835e-24
9.89584e-25
8.72056e-25
7.77615e-25
6.99785e-25
6.33269e-25
5.73674e-25
5.17576e-25
4.63181e-25
4.12096e-25
3.73322e-25
2.88587e-24
2.67375e-24
2.24375e-24
1.81357e-24
1.45097e-24
1.16437e-24
9.43581e-25
7.75011e-25
6.46388e-25
5.47817e-25
4.71629e-25
4.11988e-25
3.64451e-25
3.25568e-25
2.92587e-25
2.63294e-25
2.36037e-25
2.10022e-25
1.8608e-25
1.68343e-25
1.44377e-24
1.31927e-24
1.10086e-24
8.84505e-25
7.02202e-25
5.58407e-25
4.4817e-25
3.64576e-25
3.01282e-25
2.53151e-25
2.16212e-25
1.87484e-25
1.64724e-25
1.46213e-25
1.30602e-25
1.16837e-25
1.04155e-25
9.22133e-26
8.14155e-26
7.35938e-26
6.70682e-25
6.05096e-25
5.03061e-25
4.03109e-25
3.18821e-25
2.52267e-25
2.01286e-25
1.62725e-25
1.33638e-25
1.11607e-25
9.47634e-26
8.17145e-26
7.14154e-26
6.30692e-26
5.60597e-26
4.99134e-26
4.42974e-26
3.90704e-26
3.44182e-26
3.11235e-26
2.8698e-25
2.56053e-25
2.12528e-25
1.70363e-25
1.34737e-25
1.06503e-25
8.48154e-26
6.83896e-26
5.59965e-26
4.66113e-26
3.94412e-26
3.38932e-26
2.952e-26
2.59814e-26
2.30167e-26
2.04278e-26
1.80779e-26
1.59141e-26
1.40186e-26
1.27105e-26
1.1193e-25
9.89513e-26
8.21825e-26
6.61082e-26
5.24818e-26
4.16163e-26
3.3219e-26
2.68244e-26
2.19754e-26
1.8289e-26
1.54656e-26
1.32769e-26
1.1549e-26
1.015e-26
8.97872e-27
7.95927e-27
7.0403e-27
6.20393e-27
5.48471e-27
5.00521e-27
3.8994e-26
3.42387e-26
2.85444e-26
2.31339e-26
1.8518e-26
1.47993e-26
1.18958e-26
9.66295e-27
7.95388e-27
6.64399e-27
5.63378e-27
4.84588e-27
4.22086e-27
3.71304e-27
3.28766e-27
2.9188e-27
2.58972e-27
2.29568e-27
2.05044e-27
1.89533e-27
1.19366e-26
1.04447e-26
8.78624e-27
7.21926e-27
5.86693e-27
4.75931e-27
3.87897e-27
3.19016e-27
2.65445e-27
2.23773e-27
1.91184e-27
1.65439e-27
1.44779e-27
1.27841e-27
1.13576e-27
1.01226e-27
9.03394e-28
8.08712e-28
7.33503e-28
6.89518e-28
3.51366e-27
3.06981e-27
2.60806e-27
2.17443e-27
1.79585e-27
1.48033e-27
1.22471e-27
1.02091e-27
8.59607e-28
7.32084e-28
6.30823e-28
5.49679e-28
4.83743e-28
4.29144e-28
3.8292e-28
3.42984e-28
3.08253e-28
2.78935e-28
2.56869e-28
2.4513e-28
9.94029e-28
8.69109e-28
7.46998e-28
6.32879e-28
5.31921e-28
4.46137e-28
3.75152e-28
3.17352e-28
2.70687e-28
2.33105e-28
2.02756e-28
1.78055e-28
1.57707e-28
1.40678e-28
1.26181e-28
1.13688e-28
1.02984e-28
9.42387e-29
8.8055e-29
8.51633e-29
2.70321e-28
2.37043e-28
2.06606e-28
1.78246e-28
1.5273e-28
1.3054e-28
1.11721e-28
9.60222e-29
8.30538e-29
7.23852e-29
6.36032e-29
5.6332e-29
5.02525e-29
4.51064e-29
4.07001e-29
3.69143e-29
3.37217e-29
3.12064e-29
2.95583e-29
2.8927e-29
7.07463e-29
6.23217e-29
5.52435e-29
4.86628e-29
4.2603e-29
3.71735e-29
3.24258e-29
2.83479e-29
2.48869e-29
2.19686e-29
1.95129e-29
1.744e-29
1.56784e-29
1.41691e-29
1.28689e-29
1.17557e-29
1.08331e-29
1.01358e-29
9.72186e-30
9.61369e-30
1.78678e-29
1.58184e-29
1.43063e-29
1.29086e-29
1.15768e-29
1.03323e-29
9.19862e-30
8.18794e-30
7.30131e-30
6.53165e-30
5.86727e-30
5.29412e-30
4.79823e-30
4.36775e-30
3.99463e-30
3.67636e-30
3.41771e-30
3.23168e-30
3.13551e-30
3.12931e-30
4.37938e-30
3.88753e-30
3.59893e-30
3.33862e-30
3.07596e-30
2.81331e-30
2.5592e-30
2.32095e-30
2.10301e-30
1.90711e-30
1.73294e-30
1.57896e-30
1.44308e-30
1.32347e-30
1.21912e-30
1.1305e-30
1.06008e-30
1.01242e-30
9.92611e-31
9.98813e-31
1.05376e-30
9.303e-31
8.84048e-31
8.46524e-31
8.03294e-31
7.53858e-31
7.01051e-31
6.47847e-31
5.96468e-31
5.48283e-31
5.03959e-31
4.63677e-31
4.27363e-31
3.94913e-31
3.66416e-31
3.42344e-31
3.23709e-31
3.12046e-31
3.08849e-31
3.13072e-31
2.55475e-31
2.19423e-31
2.14289e-31
2.12344e-31
2.07717e-31
1.99997e-31
1.90052e-31
1.78875e-31
1.67272e-31
1.55806e-31
1.44831e-31
1.34543e-31
1.25048e-31
1.16428e-31
1.08808e-31
1.02414e-31
9.76165e-32
9.49177e-32
9.47568e-32
9.67016e-32
6.5505e-32
5.24104e-32
5.2256e-32
5.34688e-32
5.38457e-32
5.31489e-32
5.15885e-32
4.9444e-32
4.69616e-32
4.43295e-32
4.16803e-32
3.91026e-32
3.66572e-32
3.43964e-32
3.23825e-32
3.07063e-32
2.94988e-32
2.89266e-32
2.91315e-32
2.99664e-32
0.00099999
0.00099999
0.00099999
0.00099999
0.00099999
0.00099999
0.00099999
0.00099999
0.00099999
0.00099999
0.00099999
0.00099999
0.00099999
0.00099999
0.00099999
0.00099999
0.00099999
0.00099999
0.00099999
0.00099999
0.000999955
0.000999955
0.000999956
0.000999956
0.000999956
0.000999956
0.000999956
0.000999956
0.000999956
0.000999956
0.000999956
0.000999956
0.000999956
0.000999956
0.000999956
0.000999956
0.000999956
0.000999956
0.000999955
0.000999955
0.000999881
0.000999881
0.000999881
0.000999882
0.000999882
0.000999882
0.000999882
0.000999883
0.000999883
0.000999883
0.000999883
0.000999883
0.000999882