/*--------------------------------*- C++ -*----------------------------------*\
| =========                 |                                                 |
| \\      /  F ield         | OpenFOAM: The Open Source CFD Toolbox           |
|  \\    /   O peration     | Version:  2.1.0                                 |
|   \\  /    A nd           | Web:      www.OpenFOAM.org                      |
|    \\/     M anipulation  |                                                 |
\*---------------------------------------------------------------------------*/
FoamFile
{
    version     2.0;
    format      ascii;
    class       volScalarField;
    location    "0.05";
    object      C2;
}
// * * * * * * * * * * * * * * * * * * * * * * * * * * * * * * * * * * * * * //

dimensions      [0 0 0 0 0 0 0];

internalField   nonuniform List<scalar> 
6400
(
2.98343e-60
8.22231e-60
2.378e-59
6.86396e-59
1.97461e-58
5.66116e-58
1.61744e-57
4.60505e-57
1.30648e-56
3.69325e-56
1.04024e-55
2.91917e-55
8.16139e-55
2.27316e-54
6.30735e-54
1.74337e-53
4.79985e-53
1.3162e-52
3.59446e-52
9.77497e-52
2.64682e-51
7.13533e-51
1.91484e-50
5.11477e-50
1.35965e-49
3.59636e-49
9.46375e-49
2.47715e-48
6.44838e-48
1.66908e-47
4.29487e-47
1.09852e-46
2.79241e-46
7.05325e-46
1.76994e-45
4.41182e-45
1.09219e-44
2.68493e-44
6.55348e-44
1.58809e-43
3.82029e-43
9.12173e-43
2.16151e-42
5.08259e-42
1.1858e-41
2.74468e-41
6.30228e-41
1.43549e-40
3.24326e-40
7.26822e-40
1.61559e-39
3.56197e-39
7.7894e-39
1.68957e-38
3.63505e-38
7.75734e-38
1.64204e-37
3.44765e-37
7.18e-37
1.48313e-36
3.03857e-36
6.17417e-36
1.24417e-35
2.48623e-35
4.92632e-35
9.67791e-35
1.8848e-34
3.63846e-34
6.96094e-34
1.31959e-33
2.47819e-33
4.60948e-33
8.48913e-33
1.54749e-32
2.79116e-32
4.97908e-32
8.7804e-32
1.52983e-31
2.63186e-31
4.46745e-31
7.47604e-31
1.23219e-30
1.99795e-30
3.18286e-30
4.97379e-30
7.60991e-30
1.1374e-29
1.65612e-29
2.34129e-29
3.20051e-29
4.2091e-29
5.29363e-29
6.32455e-29
7.13591e-29
7.57593e-29
7.56767e-29
6.89854e-29
5.54508e-29
3.73069e-29
1.88142e-29
4.09743e-60
1.13438e-59
3.27992e-59
9.4632e-59
2.72126e-58
7.79894e-58
2.22751e-57
6.34019e-57
1.79833e-56
5.0828e-56
1.43147e-55
4.01694e-55
1.12311e-54
3.12855e-54
8.68258e-54
2.40062e-53
6.61207e-53
1.81407e-52
4.95724e-52
1.34911e-51
3.65629e-51
9.86674e-51
2.65093e-50
7.09025e-50
1.88756e-49
5.00095e-49
1.3184e-48
3.45792e-48
9.02156e-48
2.34083e-47
6.0395e-47
1.54923e-46
3.95051e-46
1.00125e-45
2.52178e-45
6.31074e-45
1.56891e-44
3.87434e-44
9.5023e-44
2.31449e-43
5.59814e-43
1.34444e-42
3.20551e-42
7.58678e-42
1.78229e-41
4.15545e-41
9.61493e-41
2.20767e-40
5.02989e-40
1.13711e-39
2.55065e-39
5.67659e-39
1.25342e-38
2.74576e-38
5.96721e-38
1.2865e-37
2.75141e-37
5.83708e-37
1.2283e-36
2.56364e-36
5.30668e-36
1.08935e-35
2.21745e-35
4.47542e-35
8.95488e-35
1.77615e-34
3.49166e-34
6.80231e-34
1.31305e-33
2.51088e-33
4.75553e-33
8.91854e-33
1.65573e-32
3.0419e-32
5.52845e-32
9.93534e-32
1.76474e-31
3.09642e-31
5.36361e-31
9.16564e-31
1.5439e-30
2.56099e-30
4.17876e-30
6.69824e-30
1.05308e-29
1.6208e-29
2.43655e-29
3.56767e-29
5.07083e-29
6.96695e-29
9.20588e-29
1.16291e-28
1.39521e-28
1.58008e-28
1.68181e-28
1.68389e-28
1.53734e-28
1.24338e-28
8.58037e-29
4.8029e-29
5.40788e-60
1.49955e-59
4.3377e-59
1.2521e-58
3.60254e-58
1.0331e-57
2.95277e-57
8.411e-57
2.38773e-56
6.75504e-56
1.90443e-55
5.35037e-55
1.49787e-54
4.17847e-54
1.16146e-53
3.21688e-53
8.87727e-53
2.44065e-52
6.68471e-52
1.82378e-51
4.95611e-51
1.34139e-50
3.61554e-50
9.70394e-50
2.59319e-49
6.89876e-49
1.82683e-48
4.81463e-48
1.26271e-47
3.29497e-47
8.55337e-47
2.20855e-46
5.67174e-46
1.44842e-45
3.67766e-45
9.28276e-45
2.32886e-44
5.80635e-44
1.43844e-43
3.54048e-43
8.65733e-43
2.10284e-42
5.07303e-42
1.21536e-41
2.89107e-41
6.82764e-41
1.60061e-40
3.72442e-40
8.60089e-40
1.97106e-39
4.48219e-39
1.0113e-38
2.26376e-38
5.027e-38
1.10734e-37
2.41944e-37
5.24294e-37
1.12676e-36
2.40129e-36
5.07438e-36
1.06319e-35
2.20845e-35
4.54749e-35
9.28144e-35
1.87745e-34
3.76336e-34
7.47448e-34
1.47069e-33
2.86636e-33
5.53263e-33
1.05741e-32
2.00061e-32
3.7461e-32
6.94007e-32
1.27165e-31
2.30366e-31
4.12404e-31
7.29217e-31
1.27281e-30
2.19152e-30
3.71929e-30
6.21583e-30
1.02186e-29
1.65036e-29
2.6145e-29
4.0553e-29
6.14485e-29
9.07137e-29
1.30039e-28
1.80286e-28
2.40571e-28
3.07234e-28
3.73206e-28
4.28636e-28
4.63552e-28
4.70298e-28
4.36165e-28
3.61562e-28
2.61102e-28
1.61447e-28
6.72986e-60
1.86807e-59
5.40859e-59
1.56275e-58
4.50132e-58
1.29241e-57
3.69875e-57
1.05508e-56
2.99972e-56
8.50016e-56
2.40062e-55
6.7572e-55
1.89558e-54
5.2995e-54
1.4765e-53
4.09969e-53
1.13442e-52
3.12801e-52
8.59401e-52
2.35251e-51
6.41591e-51
1.74319e-50
4.71799e-50
1.27192e-49
3.41526e-49
9.13265e-49
2.43176e-48
6.44705e-48
1.70167e-47
4.47098e-47
1.16919e-46
3.04286e-46
7.88039e-46
2.03055e-45
5.20494e-45
1.32704e-44
3.36459e-44
8.48167e-44
2.12542e-43
5.29354e-43
1.3102e-42
3.22231e-42
7.8733e-42
1.91088e-41
4.6059e-41
1.10237e-40
2.61933e-40
6.17781e-40
1.44609e-39
3.35896e-39
7.74122e-39
1.76992e-38
4.01405e-38
9.02925e-38
2.01425e-37
4.45577e-37
9.77329e-37
2.12534e-36
4.58188e-36
9.79157e-36
2.07404e-35
4.35413e-35
9.05872e-35
1.86754e-34
3.81476e-34
7.71981e-34
1.54753e-33
3.07258e-33
6.04147e-33
1.17621e-32
2.26703e-32
4.32479e-32
8.1641e-32
1.52464e-31
2.81581e-31
5.14115e-31
9.27592e-31
1.65304e-30
2.90801e-30
5.04682e-30
8.6342e-30
1.45489e-29
2.41209e-29
3.92994e-29
6.28323e-29
9.84089e-29
1.50673e-28
2.2495e-28
3.26481e-28
4.5893e-28
6.22059e-28
8.08864e-28
1.00319e-27
1.17994e-27
1.31053e-27
1.36443e-27
1.30564e-27
1.12762e-27
8.63584e-28
5.86688e-28
8.00782e-60
2.22515e-59
6.44932e-59
1.86559e-58
5.38079e-58
1.54717e-57
4.4347e-57
1.26717e-56
3.6092e-56
1.02466e-55
2.89971e-55
8.17964e-55
2.30001e-54
6.44618e-54
1.80062e-53
5.01341e-53
1.39138e-52
3.84865e-52
1.06094e-51
2.91453e-51
7.97872e-51
2.17658e-50
5.9165e-50
1.60237e-49
4.32356e-49
1.16223e-48
3.11199e-48
8.2997e-48
2.20462e-47
5.83188e-47
1.53619e-46
4.02892e-46
1.05191e-45
2.73392e-45
7.07195e-45
1.82036e-44
4.66184e-44
1.18755e-43
3.00842e-43
7.57701e-43
1.89697e-42
4.72016e-42
1.16709e-41
2.86687e-41
6.99482e-41
1.69477e-40
4.07676e-40
9.73412e-40
2.30658e-39
5.42315e-39
1.26493e-38
2.92649e-38
6.7147e-38
1.52773e-37
3.44629e-37
7.7072e-37
1.70858e-36
3.75431e-36
8.17594e-36
1.76451e-35
3.77357e-35
7.99633e-35
1.67883e-34
3.49193e-34
7.195e-34
1.46846e-33
2.96836e-33
5.94222e-33
1.17789e-32
2.31168e-32
4.49107e-32
8.6356e-32
1.64311e-31
3.09292e-31
5.75804e-31
1.05985e-30
1.92805e-30
3.46501e-30
6.14874e-30
1.07674e-29
1.85944e-29
3.16416e-29
5.30069e-29
8.7322e-29
1.41275e-28
2.24121e-28
3.4798e-28
5.27583e-28
7.78928e-28
1.11616e-27
1.54616e-27
2.06083e-27
2.62886e-27
3.19126e-27
3.66827e-27
3.96153e-27
3.95548e-27
3.59662e-27
2.93985e-27
2.17458e-27
9.20458e-60
2.56011e-59
7.42819e-59
2.15143e-58
6.21333e-58
1.78904e-57
5.13601e-57
1.47008e-56
4.19452e-56
1.19308e-55
3.38326e-55
9.56457e-55
2.69558e-54
7.57318e-54
2.12097e-53
5.92119e-53
1.64786e-52
4.57153e-52
1.26423e-51
3.48506e-51
9.5751e-51
2.62194e-50
7.15593e-50
1.94643e-49
5.27586e-49
1.42501e-48
3.83537e-48
1.02851e-47
2.74766e-47
7.31284e-47
1.9389e-46
5.11986e-46
1.34626e-45
3.52525e-45
9.19115e-45
2.3854e-44
6.1619e-44
1.58391e-43
4.0504e-43
1.0301e-42
2.6048e-42
6.54777e-42
1.63584e-41
4.06083e-41
1.00138e-40
2.45235e-40
5.96279e-40
1.43909e-39
3.44661e-39
8.18962e-39
1.93024e-38
4.51182e-38
1.0457e-37
2.40277e-37
5.47274e-37
1.23547e-36
2.76408e-36
6.12798e-36
1.34617e-35
2.93e-35
6.31818e-35
1.34974e-34
2.85637e-34
5.98778e-34
1.24331e-33
2.55696e-33
5.20803e-33
1.0505e-32
2.0982e-32
4.14941e-32
8.12383e-32
1.57438e-31
3.01967e-31
5.73093e-31
1.07599e-30
1.99795e-30
3.66792e-30
6.65507e-30
1.19287e-29
2.11116e-29
3.68703e-29
6.34972e-29
1.07745e-28
1.7996e-28
2.95524e-28
4.7648e-28
7.5302e-28
1.16413e-27
1.75618e-27
2.57769e-27
3.66811e-27
5.03915e-27
6.64982e-27
8.38188e-27
1.00341e-26
1.13265e-26
1.18925e-26
1.14596e-26
1.00227e-26
7.99661e-27
1.02839e-59
2.86244e-59
8.31397e-59
2.41095e-58
6.97059e-58
2.00962e-57
5.77724e-57
1.65591e-56
4.7319e-56
1.34831e-55
3.83107e-55
1.08525e-54
3.06444e-54
8.6274e-54
2.42199e-53
6.77799e-53
1.89078e-52
5.25882e-52
1.45833e-51
4.03226e-51
1.11139e-50
3.05316e-50
8.36142e-50
2.28302e-49
6.21282e-49
1.68493e-48
4.55512e-48
1.22725e-47
3.29452e-47
8.81311e-47
2.34923e-46
6.23855e-46
1.65018e-45
4.34744e-45
1.1407e-44
2.98036e-44
7.75242e-44
2.00725e-43
5.17193e-43
1.32575e-42
3.3799e-42
8.5678e-42
2.15898e-41
5.40655e-41
1.34512e-40
3.32381e-40
8.15487e-40
1.98597e-39
4.79933e-39
1.1506e-38
2.7359e-38
6.45067e-38
1.50782e-37
3.49349e-37
8.02167e-37
1.82521e-36
4.11489e-36
9.19111e-36
2.03384e-35
4.45844e-35
9.68178e-35
2.08267e-34
4.43783e-34
9.36691e-34
1.95834e-33
4.05544e-33
8.31824e-33
1.68986e-32
3.39998e-32
6.77458e-32
1.3367e-31
2.61149e-31
5.05121e-31
9.67142e-31
1.83272e-30
3.43651e-30
6.37448e-30
1.16934e-29
2.12056e-29
3.79999e-29
6.72535e-29
1.17485e-28
2.02427e-28
3.43716e-28
5.74563e-28
9.44399e-28
1.52412e-27
2.41079e-27
3.72951e-27
5.62832e-27
8.26002e-27
1.17438e-26
1.61012e-26
2.11706e-26
2.65278e-26
3.14753e-26
3.49478e-26
3.58502e-26
3.35908e-26
2.87109e-26
1.12122e-59
3.12317e-59
9.07766e-59
2.63455e-58
7.62499e-58
2.20053e-57
6.33187e-57
1.81658e-56
5.19798e-56
1.48343e-55
4.22119e-55
1.19749e-54
3.38702e-54
9.55276e-54
2.6865e-53
7.53306e-53
2.10583e-52
5.86917e-52
1.63113e-51
4.51974e-51
1.24876e-50
3.43988e-50
9.4476e-50
2.58696e-49
7.06127e-49
1.92145e-48
5.21245e-48
1.40951e-47
3.79869e-47
1.02019e-46
2.73027e-46
7.28126e-46
1.93475e-45
5.12105e-45
1.35014e-44
3.54534e-44
9.27033e-44
2.41338e-43
6.25391e-43
1.61271e-42
4.13725e-42
1.05558e-41
2.67776e-41
6.75182e-41
1.69161e-40
4.20986e-40
1.04033e-39
2.55193e-39
6.21183e-39
1.49999e-38
3.59211e-38
8.52882e-38
2.00728e-37
4.68189e-37
1.08208e-36
2.47786e-36
5.62119e-36
1.26326e-35
2.81225e-35
6.20163e-35
1.35472e-34
2.93153e-34
6.28411e-34
1.33448e-33
2.80742e-33
5.85113e-33
1.20814e-32
2.4714e-32
5.00859e-32
1.00561e-31
2.00019e-31
3.94114e-31
7.69219e-31
1.48701e-30
2.8468e-30
5.39652e-30
1.01273e-29
1.88101e-29
3.45682e-29
6.28331e-29
1.12912e-28
2.00491e-28
3.51546e-28
6.08233e-28
1.03746e-27
1.74275e-27
2.87945e-27
4.67223e-27
7.43173e-27
1.15623e-26
1.75479e-26
2.58936e-26
3.69962e-26
5.09177e-26
6.7064e-26
8.39902e-26
9.90527e-26
1.08584e-25
1.09169e-25
9.96428e-26
1.19502e-59
3.33043e-59
9.68452e-59
2.81176e-58
8.14267e-58
2.35151e-57
6.77108e-57
1.94418e-56
5.56868e-56
1.59072e-55
4.53007e-55
1.28645e-54
3.64315e-54
1.02875e-53
2.89648e-53
8.13187e-53
2.27656e-52
6.35463e-52
1.76886e-51
4.90974e-51
1.35875e-50
3.74992e-50
1.03189e-49
2.83065e-49
7.74317e-49
2.11209e-48
5.74284e-48
1.55675e-47
4.20644e-47
1.13269e-46
3.0398e-46
8.13004e-46
2.16674e-45
5.75344e-45
1.5219e-44
4.01004e-44
1.0523e-43
2.7497e-43
7.15325e-43
1.85224e-42
4.77241e-42
1.22319e-41
3.11768e-41
7.89972e-41
1.98924e-40
4.97632e-40
1.23627e-39
3.04892e-39
7.46174e-39
1.81154e-38
4.36143e-38
1.04103e-37
2.46288e-37
5.77415e-37
1.34131e-36
3.08691e-36
7.03783e-36
1.58949e-35
3.55615e-35
7.88158e-35
1.73051e-34
3.76432e-34
8.11298e-34
1.73255e-33
3.66632e-33
7.68857e-33
1.59794e-32
3.29151e-32
6.72006e-32
1.3599e-31
2.72774e-31
5.4233e-31
1.06876e-30
2.08751e-30
4.04091e-30
7.75152e-30
1.47329e-29
2.77397e-29
5.17275e-29
9.55035e-29
1.74517e-28
3.15487e-28
5.63903e-28
9.95891e-28
1.73646e-27
2.98652e-27
5.06121e-27
8.44005e-27
1.38281e-26
2.22177e-26
3.49293e-26
5.3584e-26
7.99285e-26
1.15408e-25
1.60342e-25
2.12675e-25
2.67408e-25
3.14465e-25
3.40279e-25
3.32e-25
1.24555e-59
3.47181e-59
1.00987e-58
2.93201e-58
8.49114e-58
2.45309e-57
7.06749e-57
2.03065e-56
5.81864e-56
1.66256e-55
4.73699e-55
1.34589e-54
3.81351e-54
1.07743e-53
3.03536e-53
8.52601e-53
2.38869e-52
6.6745e-52
1.85939e-51
5.16499e-51
1.43074e-50
3.95228e-50
1.08851e-49
2.98917e-49
8.18592e-49
2.23545e-48
6.08552e-48
1.65136e-47
4.46763e-47
1.20481e-46
3.23824e-46
8.67388e-46
2.31535e-45
6.15867e-45
1.63206e-44
4.30836e-44
1.1328e-43
2.96612e-43
7.73293e-43
2.00695e-42
5.18378e-42
1.3321e-41
3.40463e-41
8.65174e-41
2.1852e-40
5.48379e-40
1.36682e-39
3.3823e-39
8.30625e-39
2.02365e-38
4.88946e-38
1.17128e-37
2.78116e-37
6.54455e-37
1.52602e-36
3.52553e-36
8.06962e-36
1.82995e-35
4.11139e-35
9.15217e-35
2.01872e-34
4.4125e-34
9.55856e-34
2.05233e-33
4.36813e-33
9.21688e-33
1.92822e-32
3.99996e-32
8.22848e-32
1.67873e-31
3.39677e-31
6.81705e-31
1.35701e-30
2.67934e-30
5.24714e-30
1.01917e-29
1.96317e-29
3.74979e-29
7.1009e-29
1.33284e-28
2.47897e-28
4.56696e-28
8.33017e-28
1.50352e-27
2.68343e-27
4.73193e-27
8.23606e-27
1.41331e-26
2.38787e-26
3.96609e-26
6.46425e-26
1.03169e-25
1.60756e-25
2.43661e-25
3.57502e-25
5.04517e-25
6.78621e-25
8.59823e-25
1.00682e-24
1.05624e-24
1.26978e-59
3.53827e-59
1.02905e-58
2.98792e-58
8.65211e-58
2.49878e-57
7.19987e-57
2.06929e-56
5.92948e-56
1.69389e-55
4.82575e-55
1.37118e-54
3.88506e-54
1.09762e-53
3.09192e-53
8.68462e-53
2.433e-52
6.798e-52
1.89374e-51
5.25995e-51
1.45705e-50
4.02513e-50
1.10868e-49
3.04485e-49
8.33877e-49
2.27688e-48
6.19739e-48
1.68163e-47
4.54948e-47
1.22706e-46
3.2987e-46
8.83762e-46
2.35958e-45
6.2778e-45
1.66409e-44
4.39421e-44
1.15577e-43
3.02744e-43
7.8963e-43
2.05036e-42
5.29877e-42
1.36247e-41
3.48456e-41
8.86143e-41
2.24002e-40
5.62654e-40
1.40385e-39
3.47795e-39
8.5523e-39
2.08665e-38
5.04994e-38
1.21193e-37
2.88357e-37
6.80086e-37
1.58974e-36
3.68283e-36
8.45503e-36
1.92365e-35
4.3374e-35
9.69286e-35
2.147e-34
4.7143e-34
1.02626e-33
2.21521e-33
4.74174e-33
1.00668e-32
2.11995e-32
4.42894e-32
9.18051e-32
1.88832e-31
3.85451e-31
7.80889e-31
1.57024e-30
3.1342e-30
6.20991e-30
1.22137e-29
2.38453e-29
4.62093e-29
8.88763e-29
1.69632e-28
3.21223e-28
6.03341e-28
1.12364e-27
2.07394e-27
3.79166e-27
6.86156e-27
1.22803e-26
2.17144e-26
3.78886e-26
6.51436e-26
1.10181e-25
1.82976e-25
2.97766e-25
4.73438e-25
7.32361e-25
1.09656e-24
1.57783e-24
2.15727e-24
2.74565e-24
3.12228e-24
1.26556e-59
3.52478e-59
1.02462e-58
2.97436e-58
8.61134e-58
2.48625e-57
7.16005e-57
2.05658e-56
5.8899e-56
1.68189e-55
4.7893e-55
1.36001e-54
3.85091e-54
1.08738e-53
3.06159e-53
8.59536e-53
2.40614e-52
6.71558e-52
1.86908e-51
5.18756e-51
1.43575e-50
3.9626e-50
1.0904e-49
2.99139e-49
8.18268e-49
2.23155e-48
6.06691e-48
1.6443e-47
4.44317e-47
1.19689e-46
3.21356e-46
8.59966e-46
2.29332e-45
6.09366e-45
1.61323e-44
4.25469e-44
1.11766e-43
2.9238e-43
7.61614e-43
1.97498e-42
5.0969e-42
1.30872e-41
3.34242e-41
8.48824e-41
2.14281e-40
5.37555e-40
1.33965e-39
3.31548e-39
8.14608e-39
1.98639e-38
4.80592e-38
1.15339e-37
2.74526e-37
6.47931e-37
1.51623e-36
3.51774e-36
8.09123e-36
1.84511e-35
4.1716e-35
9.35163e-35
2.07881e-34
4.58284e-34
1.00207e-33
2.17355e-33
4.67741e-33
9.98786e-33
2.11658e-32
4.45203e-32
9.29623e-32
1.92728e-31
3.96764e-31
8.11199e-31
1.64734e-30
3.32316e-30
6.65993e-30
1.32609e-29
2.62351e-29
5.15716e-29
1.00729e-28
1.95472e-28
3.76847e-28
7.21639e-28
1.3723e-27
2.59066e-27
4.85307e-27
9.0163e-27
1.66013e-26
3.02677e-26
5.4586e-26
9.72507e-26
1.70905e-25
2.95729e-25
5.02838e-25
8.38363e-25
1.36527e-24
2.16141e-24
3.30411e-24
4.8232e-24
6.58161e-24
8.02512e-24
1.23306e-59
3.4323e-59
9.96972e-59
2.8921e-58
8.36835e-58
2.41469e-57
6.9475e-57
1.99334e-56
5.70306e-56
1.62712e-55
4.62905e-55
1.31317e-54
3.71466e-54
1.0476e-53
2.94606e-53
8.26222e-53
2.30988e-52
6.43738e-52
1.78891e-51
4.95753e-51
1.36976e-50
3.77273e-50
1.03602e-49
2.8365e-49
7.74153e-49
2.10625e-48
5.71294e-48
1.54464e-47
4.16354e-47
1.11878e-46
2.99619e-46
7.99689e-46
2.12689e-45
5.63616e-45
1.48798e-44
3.91316e-44
1.02495e-43
2.67331e-43
6.94238e-43
1.79453e-42
4.61597e-42
1.18124e-41
3.00654e-41
7.60913e-41
1.91436e-40
4.7864e-40
1.18896e-39
2.93346e-39
7.18681e-39
1.74795e-38
4.21951e-38
1.01076e-37
2.40227e-37
5.66398e-37
1.32469e-36
3.07308e-36
7.07126e-36
1.61395e-35
3.65406e-35
8.20692e-35
1.82872e-34
4.04315e-34
8.87062e-34
1.93156e-33
4.17493e-33
8.95864e-33
1.90879e-32
4.03898e-32
8.48899e-32
1.7725e-31
3.6774e-31
7.58215e-31
1.55388e-30
3.1658e-30
6.41297e-30
1.29184e-29
2.58812e-29
5.15746e-29
1.02234e-28
2.016e-28
3.95479e-28
7.71752e-28
1.498e-27
2.8917e-27
5.54987e-27
1.05862e-26
2.00585e-26
3.7728e-26
7.03812e-26
1.30076e-25
2.37843e-25
4.29547e-25
7.64702e-25
1.33877e-24
2.29767e-24
3.84743e-24
6.24365e-24
9.71128e-24
1.41721e-23
1.85294e-23
1.17309e-59
3.26334e-59
9.47233e-59
2.74522e-58
7.93413e-58
2.28665e-57
6.57131e-57
1.88307e-56
5.38093e-56
1.53328e-55
4.35626e-55
1.23399e-54
3.48546e-54
9.81486e-54
2.75548e-53
7.71312e-53
2.15231e-52
5.98771e-52
1.66055e-51
4.59068e-51
1.26518e-50
3.47534e-50
9.51638e-50
2.59763e-49
7.06764e-49
1.91659e-48
5.18063e-48
1.39581e-47
3.74829e-47
1.00342e-46
2.67689e-46
7.11504e-46
1.88441e-45
4.97269e-45
1.30709e-44
3.42174e-44
8.92102e-44
2.31602e-43
5.98521e-43
1.53925e-42
3.93855e-42
1.00249e-41
2.53776e-41
6.38774e-41
1.59834e-40
3.9748e-40
9.82156e-40
2.41085e-39
5.87751e-39
1.42289e-38
3.42007e-38
8.16054e-38
1.93274e-37
4.54318e-37
1.05987e-36
2.45378e-36
5.6378e-36
1.28554e-35
2.90927e-35
6.53488e-35
1.45709e-34
3.22536e-34
7.08867e-34
1.54707e-33
3.35333e-33
7.22002e-33
1.54444e-32
3.28287e-32
6.93538e-32
1.45649e-31
3.04126e-31
6.31541e-31
1.30449e-30
2.68082e-30
5.48238e-30
1.11593e-29
2.26131e-29
4.56265e-29
9.16832e-29
1.83504e-28
3.65886e-28
7.26833e-28
1.4386e-27
2.83708e-27
5.57439e-27
1.09108e-26
2.12682e-26
4.12707e-26
7.96762e-26
1.52907e-25
2.91369e-25
5.50467e-25
1.02908e-24
1.89893e-24
3.44827e-24
6.13274e-24
1.06077e-23
1.76421e-23
2.762e-23
3.88863e-23
1.08718e-59
3.02231e-59
8.76551e-59
2.53746e-58
7.32452e-58
2.10815e-57
6.05034e-57
1.73132e-56
4.93977e-56
1.4053e-55
3.98601e-55
1.12716e-54
3.17757e-54
8.93095e-54
2.50224e-53
6.98817e-53
1.9455e-52
5.39906e-52
1.49337e-51
4.1165e-51
1.13093e-50
3.09663e-50
8.45e-50
2.29801e-49
6.22843e-49
1.68222e-48
4.52785e-48
1.21455e-47
3.24629e-47
8.64576e-47
2.29435e-46
6.06612e-46
1.59766e-45
4.19116e-45
1.09506e-44
2.84916e-44
7.38133e-44
1.90378e-43
4.88627e-43
1.24774e-42
3.16958e-42
8.00844e-42
2.01227e-41
5.0273e-41
1.24857e-40
3.08205e-40
7.56022e-40
1.84256e-39
4.46103e-39
1.07279e-38
2.5622e-38
6.07697e-38
1.43122e-37
3.34697e-37
7.77158e-37
1.79175e-36
4.10169e-36
9.32358e-36
2.10456e-35
4.71769e-35
1.05034e-34
2.3228e-34
5.10304e-34
1.11391e-33
2.41623e-33
5.20922e-33
1.11644e-32
2.37909e-32
5.04188e-32
1.06286e-31
2.22929e-31
4.65336e-31
9.66908e-31
2.00048e-30
4.12217e-30
8.46209e-30
1.73103e-29
3.52959e-29
7.17557e-29
1.45485e-28
2.94255e-28
5.93866e-28
1.19623e-27
2.40549e-27
4.82984e-27
9.68428e-27
1.93927e-26
3.87825e-26
7.74429e-26
1.54353e-25
3.06867e-25
6.07892e-25
1.19794e-24
2.34275e-24
4.53207e-24
8.63188e-24
1.60615e-23
2.88368e-23
4.88688e-23
7.47131e-23
9.77161e-60
2.71425e-59
7.86426e-59
2.27403e-58
6.5562e-58
1.88463e-57
5.40128e-57
1.54326e-56
4.39599e-56
1.24842e-55
3.53455e-55
9.97567e-55
2.80647e-54
7.87054e-54
2.20009e-53
6.12943e-53
1.70195e-52
4.70953e-52
1.29869e-51
3.56861e-51
9.77044e-51
2.66551e-50
7.2457e-50
1.96245e-49
5.29557e-49
1.42368e-48
3.81316e-48
1.01748e-47
2.70468e-47
7.16108e-47
1.88848e-46
4.9604e-46
1.29757e-45
3.37968e-45
8.76456e-45
2.26284e-44
5.81522e-44
1.4872e-43
3.7838e-43
9.57589e-43
2.41044e-42
6.0343e-42
1.50214e-41
3.7178e-41
9.1472e-41
2.23696e-40
5.4367e-40
1.31301e-39
3.15072e-39
7.51149e-39
1.77903e-38
4.18565e-38
9.78245e-38
2.27108e-37
5.23741e-37
1.19981e-36
2.73044e-36
6.17312e-36
1.38662e-35
3.09474e-35
6.86363e-35
1.51286e-34
3.31448e-34
7.21896e-34
1.56331e-33
3.36673e-33
7.21191e-33
1.53696e-32
3.25946e-32
6.88026e-32
1.44595e-31
3.02627e-31
6.30943e-31
1.31078e-30
2.71429e-30
5.60415e-30
1.15406e-29
2.3712e-29
4.8627e-29
9.95681e-29
2.03641e-28
4.16191e-28
8.50326e-28
1.73757e-27
3.55275e-27
7.27222e-27
1.49097e-26
3.06325e-26
6.30977e-26
1.30356e-25
2.70172e-25
5.61702e-25
1.17066e-24
2.44157e-24
5.07918e-24
1.04912e-23
2.13269e-23
4.20509e-23
7.84495e-23
1.32107e-22
8.45866e-60
2.34761e-59
6.7955e-59
1.96305e-58
5.65326e-58
1.62306e-57
4.64529e-57
1.32533e-56
3.76943e-56
1.06871e-55
3.02035e-55
8.5083e-55
2.38889e-54
6.685e-54
1.86437e-53
5.18144e-53
1.43488e-52
3.95914e-52
1.08841e-51
2.98101e-51
8.13346e-51
2.21064e-50
5.98532e-50
1.61417e-49
4.33577e-49
1.15993e-48
3.09046e-48
8.20008e-48
2.16665e-47
5.69993e-47
1.49292e-46
3.89283e-46
1.01046e-45
2.61061e-45
6.71246e-45
1.71746e-44
4.37205e-44
1.10709e-43
2.78811e-43
6.98299e-43
1.73922e-42
4.30729e-42
1.0606e-41
2.59624e-41
6.31751e-41
1.52796e-40
3.67288e-40
8.77402e-40
2.08289e-39
4.91353e-39
1.15178e-38
2.68284e-38
6.20965e-38
1.42823e-37
3.26436e-37
7.4146e-37
1.67376e-36
3.75531e-36
8.37493e-36
1.85671e-35
4.09248e-35
8.96946e-35
1.95499e-34
4.23831e-34
9.14073e-34
1.96152e-33
4.18903e-33
8.90517e-33
1.88487e-32
3.97322e-32
8.34348e-32
1.7459e-31
3.64161e-31
7.57366e-31
1.5711e-30
3.25189e-30
6.71847e-30
1.38604e-29
2.85652e-29
5.88369e-29
1.21179e-28
2.49689e-28
5.15019e-28
1.0641e-27
2.20392e-27
4.57953e-27
9.55582e-27
2.00451e-26
4.23244e-26
9.00844e-26
1.93602e-25
4.20871e-25
9.26916e-25
2.06931e-24
4.67582e-24
1.06421e-23
2.41679e-23
5.37682e-23
1.13596e-22
2.1576e-22
6.97234e-60
1.93359e-59
5.59341e-59
1.61462e-58
4.64598e-58
1.33258e-57
3.80988e-57
1.08574e-56
3.08415e-56
8.73221e-56
2.46419e-55
6.93059e-55
1.94261e-54
5.42611e-54
1.51025e-53
4.18817e-53
1.1571e-52
3.18468e-52
8.73125e-52
2.38436e-51
6.48515e-51
1.75668e-50
4.73871e-50
1.27289e-49
3.40441e-49
9.06536e-49
2.40322e-48
6.34213e-48
1.66591e-47
4.35497e-47
1.13293e-46
2.93274e-46
7.55338e-46
1.93536e-45
4.93262e-45
1.25035e-44
3.15179e-44
7.8994e-44
1.9684e-43
4.87649e-43
1.20104e-42
2.94054e-42
7.15627e-42
1.73104e-41
4.16162e-41
9.94331e-41
2.36103e-40
5.57141e-40
1.30655e-39
3.04504e-39
7.05306e-39
1.62367e-38
3.71516e-38
8.44968e-38
1.91036e-37
4.29374e-37
9.59488e-37
2.13191e-36
4.71055e-36
1.03514e-35
2.26258e-35
4.91984e-35
1.0644e-34
2.29157e-34
4.91035e-34
1.04743e-33
2.22463e-33
4.70556e-33
9.91497e-33
2.08167e-32
4.35608e-32
9.08806e-32
1.89091e-31
3.92498e-31
8.13049e-31
1.68139e-30
3.47267e-30
7.16609e-30
1.47817e-29
3.04932e-29
6.29449e-29
1.30095e-28
2.694e-28
5.59392e-28
1.16576e-27
2.44086e-27
5.14127e-27
1.09113e-26
2.33786e-26
5.06985e-26
1.11652e-25
2.50829e-25
5.78026e-25
1.37406e-24
3.38319e-24
8.60772e-24
2.24354e-23
5.85165e-23
1.46283e-22
3.25996e-22
5.38996e-60
1.49282e-59
4.31776e-59
1.24617e-58
3.58483e-58
1.02784e-57
2.93731e-57
8.36628e-57
2.37503e-56
6.71954e-56
1.89465e-55
5.32379e-55
1.49069e-54
4.15903e-54
1.15611e-53
3.20162e-53
8.83191e-53
2.42674e-52
6.64109e-52
1.80995e-51
4.9121e-51
1.3274e-50
3.57129e-50
9.56529e-50
2.55021e-49
6.76725e-49
1.78719e-48
4.69679e-48
1.22812e-47
3.1947e-47
8.26652e-47
2.12751e-46
5.44532e-46
1.38587e-45
3.50681e-45
8.82126e-45
2.20557e-44
5.48073e-44
1.35353e-43
3.32203e-43
8.10251e-43
1.96374e-42
4.72905e-42
1.13153e-41
2.69002e-41
6.35379e-41
1.4911e-40
3.47688e-40
8.0558e-40
1.85478e-39
4.24401e-39
9.65163e-39
2.18177e-38
4.90281e-38
1.09537e-37
2.4334e-37
5.37596e-37
1.18127e-36
2.58198e-36
5.61478e-36
1.21494e-35
2.61631e-35
5.60796e-35
1.19668e-34
2.54267e-34
5.38055e-34
1.13417e-33
2.38205e-33
4.98591e-33
1.04034e-32
2.16451e-32
4.49181e-32
9.30008e-32
1.92172e-31
3.96433e-31
8.16736e-31
1.68108e-30
3.45832e-30
7.1139e-30
1.46396e-29
3.01555e-29
6.2214e-29
1.28646e-28
2.66842e-28
5.55744e-28
1.1635e-27
2.45216e-27
5.21221e-27
1.12e-26
2.44093e-26
5.42076e-26
1.23531e-25
2.91876e-25
7.2414e-25
1.91293e-24
5.42874e-24
1.64974e-23
5.23987e-23
1.63708e-22
4.54179e-22
3.97589e-60
1.09641e-59
3.17263e-59
9.16225e-59
2.63719e-58
7.5653e-58
2.16299e-57
6.16342e-57
1.75031e-56
4.95358e-56
1.39705e-55
3.92626e-55
1.0995e-54
3.06778e-54
8.52774e-54
2.36145e-53
6.51345e-53
1.78935e-52
4.89548e-52
1.33373e-51
3.61801e-51
9.77139e-51
2.62713e-50
7.0306e-50
1.87257e-49
4.96339e-49
1.3091e-48
3.4353e-48
8.96786e-48
2.32855e-47
6.01313e-47
1.54412e-46
3.94247e-46
1.0007e-45
2.52482e-45
6.33111e-45
1.5776e-44
3.90604e-44
9.60921e-44
2.34872e-43
5.70339e-43
1.37581e-42
3.29667e-42
7.84623e-42
1.85482e-41
4.355e-41
1.01561e-40
2.35254e-40
5.41301e-40
1.23728e-39
2.80972e-39
6.33987e-39
1.42159e-38
3.16818e-38
7.0187e-38
1.54593e-37
3.38596e-37
7.37588e-37
1.59832e-36
3.44596e-36
7.39328e-36
1.57881e-35
3.35638e-35
7.10481e-35
1.49784e-34
3.1456e-34
6.58219e-34
1.37268e-33
2.8537e-33
5.91561e-33
1.22309e-32
2.52293e-32
5.19345e-32
1.06719e-31
2.18976e-31
4.48813e-31
9.19187e-31
1.88183e-30
3.8528e-30
7.89214e-30
1.61831e-29
3.32378e-29
6.84231e-29
1.41293e-28
2.9296e-28
6.1063e-28
1.28142e-27
2.71285e-27
5.81008e-27
1.26397e-26
2.81086e-26
6.45204e-26
1.54915e-25
3.95092e-25
1.08898e-24
3.29724e-24
1.10867e-23
4.11607e-23
1.59813e-22
5.70268e-22
6.22081e-30
5.10164e-30
5.15648e-30
5.32937e-30
5.41611e-30
5.39314e-30
5.27878e-30
5.09853e-30
4.87543e-30
4.62752e-30
4.36786e-30
4.10549e-30
3.84687e-30
3.59778e-30
3.36528e-30
3.15954e-30
2.99519e-30
2.891e-30
2.86471e-30
2.91118e-30
2.40536e-29
2.10234e-29
2.07544e-29
2.07532e-29
2.04804e-29
1.98917e-29
1.90626e-29
1.80829e-29
1.70275e-29
1.59505e-29
1.4887e-29
1.38578e-29
1.28752e-29
1.19495e-29
1.10956e-29
1.03394e-29
9.72223e-30
9.30075e-30
9.13114e-30
9.20394e-30
9.79186e-29
8.75756e-29
8.39829e-29
8.11046e-29
7.7632e-29
7.3496e-29
6.89378e-29
6.42221e-29
5.95549e-29
5.50688e-29
5.08345e-29
4.68778e-29
4.31996e-29
3.97985e-29
3.66924e-29
3.39382e-29
3.16496e-29
3.00005e-29
2.91811e-29
2.92023e-29
4.00231e-28
3.58962e-28
3.35035e-28
3.13367e-28
2.91222e-28
2.68737e-28
2.46626e-28
2.25537e-28
2.05889e-28
1.87871e-28
1.71495e-28
1.56654e-28
1.43186e-28
1.30947e-28
1.19874e-28
1.10047e-28
1.0175e-28
9.55023e-29
9.1947e-29
9.12845e-29
1.60195e-27
1.43065e-27
1.30382e-27
1.18605e-27
1.07304e-27
9.66456e-28
8.68259e-28
7.79554e-28
7.00557e-28
6.30805e-28
5.69413e-28
5.15252e-28
4.67166e-28
4.24168e-28
3.85607e-28
3.51355e-28
3.22017e-28
2.99082e-28
2.84703e-28
2.80127e-28
6.21032e-27
5.51364e-27
4.92392e-27
4.37311e-27
3.863e-27
3.40248e-27
2.99593e-27
2.64272e-27
2.33894e-27
2.07889e-27
1.85618e-27
1.66429e-27
1.49725e-27
1.35009e-27
1.2192e-27
1.10284e-27
1.00184e-27
9.20242e-28
8.65132e-28
8.42606e-28
2.31968e-26
2.049e-26
1.79919e-26
1.56531e-26
1.35369e-26
1.16833e-26
1.0097e-26
8.75949e-27
7.64088e-27
6.70775e-27
5.92705e-27
5.26821e-27
4.7048e-27
4.21519e-27
3.78304e-27
3.39856e-27
3.0606e-27
2.77935e-27
2.57749e-27
2.48137e-27
8.32753e-26
7.33238e-26
6.34962e-26
5.42632e-26
4.60474e-26
3.90143e-26
3.31415e-26
2.83091e-26
2.43613e-26
2.11397e-26
1.8498e-26
1.63092e-26
1.44674e-26
1.28869e-26
1.1502e-26
1.02688e-26
9.17167e-27
8.23307e-27
7.52329e-27
7.14699e-27
2.87065e-25
2.52541e-25
2.16198e-25
1.81872e-25
1.51722e-25
1.26399e-25
1.05687e-25
8.89943e-26
7.56313e-26
6.49302e-26
5.63085e-26
4.92816e-26
4.34554e-26
3.85141e-26
3.42132e-26
3.03805e-26
2.6931e-26
2.3902e-26
2.15018e-26
2.01188e-26
9.50229e-25
8.37182e-25
7.09752e-25
5.88621e-25
4.83428e-25
3.9656e-25
3.26795e-25
2.71589e-25
2.28165e-25
1.93965e-25
1.66846e-25
1.45073e-25
1.27263e-25
1.1232e-25
9.93998e-26
8.78792e-26
7.73981e-26
6.7966e-26
6.01606e-26
5.53308e-26
2.95228e-24
2.61072e-24
2.19512e-24
1.79718e-24
1.45497e-24
1.17665e-24
9.56955e-25
7.86026e-25
6.53647e-25
5.50893e-25
4.70554e-25
4.06919e-25
3.55521e-25
3.12867e-25
2.76262e-25
2.43693e-25
2.13888e-25
1.86611e-25
1.63281e-25
1.48013e-25
7.98514e-24
7.11129e-24
5.96101e-24
4.84787e-24
3.89488e-24
3.12675e-24
2.52646e-24
2.06397e-24
1.7089e-24
1.43544e-24
1.22313e-24
1.0561e-24
9.22028e-25
8.11395e-25
7.16794e-25
6.32657e-25
5.55317e-25
4.83807e-25
4.215e-25
3.79204e-25
1.95392e-23
1.75638e-23
1.47198e-23
1.19354e-23
9.55771e-24
7.65189e-24
6.17044e-24
5.03437e-24
4.1661e-24
3.50018e-24
2.98471e-24
2.58024e-24
2.25643e-24
1.98984e-24
1.76219e-24
1.55948e-24
1.37229e-24
1.19764e-24
1.04314e-24
9.35383e-25
4.38636e-23
3.98749e-23
3.34858e-23
2.71528e-23
2.17514e-23
1.74348e-23
1.40865e-23
1.15215e-23
9.56183e-24
8.05904e-24
6.89564e-24
5.98236e-24
5.25099e-24
4.6486e-24
4.13357e-24
3.67362e-24
3.24649e-24
2.84408e-24
2.48276e-24
2.22503e-24
9.11605e-23
8.3945e-23
7.07795e-23
5.75656e-23
4.62951e-23
3.7292e-23
3.03005e-23
2.49307e-23
2.08139e-23
1.76453e-23
1.51843e-23
1.32463e-23
1.16898e-23
1.04043e-23
9.30161e-24
8.31222e-24
7.38632e-24
6.50389e-24
5.6989e-24
5.11218e-24
1.7669e-22
1.64994e-22
1.39947e-22
1.1452e-22
9.28101e-23
7.54236e-23
6.18532e-23
5.13605e-23
4.32568e-23
3.69738e-23
3.20618e-23
2.8171e-23
2.50297e-23
2.24224e-23
2.01746e-23
1.81443e-23
1.6226e-23
1.43726e-23
1.26513e-23
1.13678e-23
3.21636e-22
3.04555e-22
2.60341e-22
2.15126e-22
1.76432e-22
1.45241e-22
1.20648e-22
1.01407e-22
8.637e-23
7.45823e-23
6.52765e-23
5.78427e-23
5.17957e-23
4.67422e-23
4.23547e-23
3.83586e-23
3.45396e-23
3.07912e-23
2.72381e-23
2.45218e-23
5.54035e-22
5.30728e-22
4.58142e-22
3.83995e-22
3.20263e-22
2.68203e-22
2.26427e-22
1.93138e-22
1.66679e-22
1.45626e-22
1.28794e-22
1.15203e-22
1.04043e-22
9.4636e-23
8.63966e-23
7.88161e-23
7.14764e-23
6.4144e-23
5.70304e-23
5.1435e-23
9.10847e-22
8.77175e-22
7.67022e-22
6.56168e-22
5.59621e-22
4.78651e-22
4.11787e-22
3.57098e-22
3.12651e-22
2.76633e-22
2.47399e-22
2.23498e-22
2.03659e-22
1.86765e-22
1.71815e-22
1.57899e-22
1.44226e-22
1.303e-22
1.16435e-22
1.05146e-22
1.44191e-21
1.37997e-21
1.23245e-21
1.08479e-21
9.50594e-22
8.32488e-22
7.30794e-22
6.44768e-22
5.72973e-22
5.13567e-22
4.64546e-22
4.23921e-22
3.89801e-22
3.60422e-22
3.34117e-22
3.09304e-22
2.84531e-22
2.58775e-22
2.32385e-22
2.09928e-22
1.4985e-133
1.47326e-133
1.43157e-133
1.38284e-133
1.3312e-133
1.27889e-133
1.22685e-133
1.17535e-133
1.1245e-133
1.07452e-133
1.02591e-133
9.7953e-134
9.365e-134
8.98156e-134
8.65876e-134
8.40856e-134
8.23809e-134
8.14602e-134
8.11861e-134
8.12689e-134
2.19168e-132
2.15151e-132
2.08839e-132
2.01597e-132
1.94014e-132
1.86389e-132
1.78833e-132
1.71368e-132
1.63996e-132
1.56741e-132
1.49673e-132
1.42916e-132
1.36637e-132
1.31038e-132
1.26327e-132
1.2269e-132
1.20244e-132
1.18985e-132
1.18722e-132
1.1903e-132
2.93307e-131
2.87428e-131
2.78646e-131
2.68794e-131
2.58615e-131
2.48459e-131