/*--------------------------------*- C++ -*----------------------------------*\
| =========                 |                                                 |
| \\      /  F ield         | OpenFOAM: The Open Source CFD Toolbox           |
|  \\    /   O peration     | Version:  2.1.0                                 |
|   \\  /    A nd           | Web:      www.OpenFOAM.org                      |
|    \\/     M anipulation  |                                                 |
\*---------------------------------------------------------------------------*/
FoamFile
{
    version     2.0;
    format      ascii;
    class       volScalarField;
    location    "0.05";
    object      k;
}
// * * * * * * * * * * * * * * * * * * * * * * * * * * * * * * * * * * * * * //

dimensions      [0 2 -2 0 0 0 0];

internalField   nonuniform List<scalar> 
6400
(
0.0336751
0.0336755
0.0336754
0.0336773
0.0336807
0.0336865
0.0336945
0.0337032
0.0337114
0.0337204
0.0337314
0.0337402
0.0337425
0.0337422
0.0337382
0.0337312
0.0337217
0.0337104
0.0336994
0.0336889
0.0336787
0.0336683
0.0336614
0.0336582
0.0336543
0.0336481
0.0336455
0.0336437
0.0336398
0.0336305
0.0336122
0.0335844
0.0335462
0.0334937
0.0334253
0.0333391
0.033228
0.0330825
0.0328997
0.0326819
0.0324262
0.0321249
0.0317695
0.0313603
0.0308929
0.030359
0.0297584
0.0290869
0.0283457
0.0275408
0.0266803
0.0257721
0.0248251
0.0238478
0.0228501
0.0218416
0.0208352
0.0198448
0.0188859
0.0179732
0.0171113
0.0163061
0.0155647
0.0148958
0.0143075
0.0138003
0.0133713
0.0129966
0.012667
0.0123823
0.0121536
0.0119913
0.0119194
0.0119065
0.0119176
0.0119508
0.0120029
0.0120676
0.0121361
0.012181
0.0121895
0.0121764
0.0121221
0.0119958
0.0118115
0.0116101
0.0113609
0.0109836
0.0104503
0.00974921
0.00883847
0.00765734
0.0061463
0.00440365
0.00259983
0.00149888
0.00157887
0.0034587
0.00552814
0.006203
0.00414989
0.00413978
0.00414116
0.00415434
0.00417159
0.00418382
0.00418795
0.00418867
0.00418778
0.00418259
0.00416962
0.00414979
0.00412751
0.0041103
0.0041039
0.00410105
0.00409951
0.00409836
0.00409757
0.00409678
0.00409641
0.00409637
0.00409697
0.0040986
0.00409904
0.00409897
0.00409854
0.00409743
0.00409455
0.0040886
0.00407876
0.00406569
0.00405002
0.00403172
0.00401176
0.00399141
0.00397054
0.00394849
0.00392571
0.00390903
0.00390232
0.00390025
0.00390064
0.00390919
0.00393232
0.00397117
0.00402506
0.00409477
0.00418013
0.00427593
0.00436719
0.00444912
0.00453782
0.00466435
0.00486105
0.00515035
0.00553996
0.00602523
0.00658932
0.00720646
0.00786311
0.00857427
0.00938067
0.0103063
0.0113559
0.0125294
0.0138414
0.0153129
0.0169254
0.0186274
0.0203791
0.0221283
0.0238527
0.0255453
0.0272
0.0288097
0.0303705
0.0318539
0.0332085
0.0343883
0.0353655
0.0361343
0.0366398
0.0368422
0.0368875
0.0367298
0.0361012
0.0350137
0.0335107
0.0315127
0.0289487
0.0258621
0.0224249
0.0189704
0.0155569
0.0120163
0.00937336
0.00764484
0.00649825
0.00545751
0.00117076
0.00116952
0.00116952
0.00117064
0.00117211
0.0011733
0.00117366
0.00117368
0.00117348
0.0011728
0.00117145
0.00116948
0.00116742
0.00116614
0.00116586
0.00116567
0.00116556
0.00116558
0.00116558
0.00116561
0.00116554
0.00116561
0.00116571
0.00116587
0.001166
0.00116619
0.00116671
0.00116746
0.00116859
0.00117037
0.001173
0.0011769
0.00118264
0.00119067
0.00120181
0.00121689
0.00123721
0.00126395
0.00129676
0.00133836
0.00138805
0.00144492
0.00150755
0.00157179
0.00164114
0.00172199
0.0018244
0.0019496
0.00209889
0.00227375
0.00247716
0.00271703
0.00300583
0.00335924
0.00379591
0.00433444
0.00498882
0.00576877
0.006675
0.00770634
0.0088381
0.0100328
0.0112569
0.0125164
0.0138419
0.0152522
0.0167634
0.0183872
0.0201412
0.022003
0.0238858
0.0257459
0.0275876
0.0293989
0.0311411
0.0327775
0.0342796
0.035611
0.0367417
0.0376622
0.0382773
0.0385483
0.038643
0.0386308
0.0382166
0.0372617
0.036107
0.0347746
0.0329811
0.030804
0.0284617
0.0257536
0.0225179
0.0190211
0.015481
0.0118942
0.00905311
0.00682857
0.00520235
0.00351988
0.00105361
0.00105353
0.00105382
0.00105395
0.001054
0.00105425
0.0010544
0.00105437
0.00105435
0.00105437
0.00105426
0.00105419
0.00105401
0.00105385
0.0010539
0.00105389
0.00105383
0.00105394
0.0010541
0.00105412
0.00105404
0.001054
0.0010541
0.00105409
0.001054
0.00105392
0.00105415
0.00105467
0.00105527
0.00105687
0.00105935
0.00106383
0.00107053
0.00107954
0.0010908
0.0011052
0.00112113
0.00114102
0.001164
0.00119185
0.00122689
0.00126894
0.00132103
0.0013837
0.00145891
0.00154896
0.00165812
0.00178972
0.00195019
0.00214498
0.00238447
0.00268219
0.00305103
0.00350506
0.0040584
0.00472158
0.00549672
0.00637918
0.00735532
0.00841169
0.00953181
0.0107017
0.0119113
0.0131558
0.0144368
0.015754
0.0171054
0.0184778
0.0198514
0.0212041
0.0225235
0.0237725
0.0249238
0.0259805
0.0269287
0.0277376
0.0283787
0.0287844
0.0289648
0.029025
0.0289778
0.0285559
0.027886
0.0271595
0.0261435
0.0248489
0.0235154
0.021994
0.0202552
0.0185353
0.0166941
0.0147156
0.012759
0.0107707
0.00882613
0.0069813
0.00531672
0.00393975
0.0029787
0.0025445
0.00105884
0.00106037
0.00106056
0.00106098
0.00106119
0.00106123
0.00106202
0.00106229
0.00106246
0.0010622
0.00106221
0.0010617
0.00106126
0.00106077
0.00106135
0.00106108
0.0010604
0.00106118
0.00106132
0.00106148
0.00106022
0.00105987
0.00106
0.00105988
0.00105896
0.00105886
0.00105906
0.00105928
0.00105903
0.00105927
0.00106038
0.00106343
0.00106899
0.001076
0.00108402
0.00109176
0.00109882
0.00110997
0.0011251
0.00114424
0.00117142
0.00120689
0.00125466
0.00131342
0.00138585
0.00147422
0.00158064
0.00170999
0.00186788
0.00206052
0.00230036
0.00260149
0.0029761
0.00343341
0.00397302
0.00458704
0.0052645
0.00599451
0.00676484
0.0075649
0.00838166
0.00920446
0.010028
0.0108486
0.0116639
0.0124674
0.0132526
0.0140115
0.0147349
0.0154061
0.0160094
0.0165394
0.0169839
0.0173232
0.0175007
0.017578
0.0175934
0.017467
0.0171097
0.0166973
0.0161628
0.0154422
0.0146791
0.0139083
0.0129815
0.0120733
0.011197
0.0102122
0.00928084
0.00847761
0.00755477
0.0066679
0.00579801
0.00496722
0.00433009
0.00374399
0.00306014
0.00272588
0.00256472
0.00253862
0.0010632
0.00106492
0.00106498
0.00106491
0.00106545
0.00106515
0.00106553
0.00106493
0.00106525
0.00106505
0.00106533
0.00106475
0.00106471
0.00106419
0.00106459
0.00106398
0.00106419
0.00106495
0.00106487
0.00106538
0.00106519
0.00106442
0.00106446
0.0010646
0.00106378
0.00106323
0.00106358
0.00106326
0.00106312
0.00106321
0.00106376
0.00106527
0.00106826
0.00107061
0.00107445
0.00107617
0.00107974
0.00108523
0.00109453
0.0011093
0.00113201
0.00116321
0.00120544
0.00125742
0.00132201
0.00140028
0.0014946
0.00160886
0.0017468
0.00191472
0.00212048
0.00237264
0.0026721
0.00301174
0.00338245
0.00379379
0.00426638
0.00480485
0.00538761
0.00596388
0.00648538
0.00693529
0.00732637
0.00768462
0.00802799
0.00835264
0.00863974
0.00887107
0.00905488
0.00920665
0.00929943
0.00933637
0.00934562
0.00931739
0.00919783
0.00903528
0.00885918
0.00862547
0.00833554
0.0080352
0.0077094
0.0073551
0.00699674
0.00663145
0.00625251
0.00589002
0.00553338
0.0051749
0.00484482
0.00452412
0.00418678
0.00387957
0.00359335
0.00332491
0.00308247
0.00286573
0.00271159
0.00264394
0.00263104
0.00270375
0.00106026
0.00106043
0.00106126
0.00106087
0.00106064
0.0010607
0.00106094
0.00106097
0.00106116
0.00106147
0.00106085
0.00106097
0.00106102
0.00106074
0.00106055
0.00106064
0.00106032
0.00106027
0.00106028
0.00106049
0.00106087
0.00106114
0.00106131
0.00106052
0.00106061
0.00106049
0.00106062
0.00106029
0.00106027
0.00105993
0.00106021
0.0010602
0.00106146
0.00106224
0.0010631
0.00106432
0.0010669
0.00107037
0.00107744
0.0010903
0.00110995
0.00113768
0.00117346
0.0012187
0.0012737
0.00134092
0.00142115
0.00151662
0.00162916
0.00176207
0.00191712
0.00209023
0.00227925
0.00249655
0.00276016
0.00308395
0.00346394
0.00387424
0.00427623
0.00463448
0.00493523
0.00518469
0.005404
0.00560967
0.00579481
0.00594253
0.00604581
0.00610683
0.00613458
0.00614338
0.00613636
0.0060807
0.00598715
0.00588957
0.00577615
0.00563398
0.00548462
0.00533314
0.00517118
0.00500582
0.00485135
0.00469249
0.00453218
0.00437691
0.00423194
0.00408292
0.00393962
0.00380471
0.00367236
0.00354207
0.00341494
0.00330275
0.00319648
0.00309908
0.00302291
0.00297531
0.00295583
0.00298447
0.00313361
0.00323076
0.0010559
0.00105613
0.00105621
0.00105595
0.00105595
0.00105607
0.00105603
0.00105578
0.00105554
0.00105571
0.00105551
0.00105543
0.00105555
0.00105551
0.00105582
0.00105578
0.00105575
0.00105579
0.0010559
0.00105614
0.00105628
0.00105655
0.0010564
0.00105645
0.00105633
0.00105626
0.0010563
0.00105597
0.00105586
0.0010556
0.00105563
0.00105576
0.00105568
0.00105585
0.00105628
0.00105742
0.00105956
0.0010628
0.0010696
0.00108134
0.00109884
0.00112305
0.00115441
0.00119364
0.00124213
0.00130053
0.00136935
0.00144905
0.00153946
0.00163905
0.00174514
0.00186314
0.00200624
0.00219057
0.00242745
0.00271715
0.00304497
0.00338492
0.00370716
0.0039913
0.00423357
0.00444503
0.00463869
0.00481535
0.0049762
0.00511454
0.00522232
0.0053066
0.00538154
0.00544509
0.00547287
0.00548311
0.00548578
0.00548531
0.00547767
0.00545843
0.00543027
0.00539886
0.00536643
0.00533311
0.00529417
0.00525026
0.005205
0.00515924
0.00511102
0.00506
0.00500843
0.00495416
0.00489366
0.00482915
0.00476347
0.00469604
0.00462836
0.00456828
0.00453491
0.00452298
0.00456496
0.00470772
0.00494594
0.00509146
0.00105318
0.00105344
0.00105344
0.00105346
0.00105336
0.00105342
0.00105311
0.00105268
0.00105264
0.00105238
0.00105266
0.00105241
0.00105253
0.00105284
0.00105284
0.00105297
0.00105337
0.00105339
0.00105351
0.00105345
0.00105398
0.001054
0.00105373
0.00105377
0.00105356
0.00105335
0.00105352
0.00105354
0.00105297
0.00105307
0.00105292
0.0010526
0.00105237
0.00105254
0.00105291
0.00105419
0.00105648
0.00105983
0.00106654
0.00107747
0.00109383
0.00111537
0.00114401
0.00117977
0.00122419
0.00127681
0.0013378
0.00140582
0.00147826
0.0015534
0.00163609
0.00173615
0.00186728
0.00204238
0.00226936
0.00254584
0.00285822
0.00318437
0.00350335
0.00380446
0.00409102
0.00437512
0.00466596
0.00496213
0.00525047
0.0055205
0.00577382
0.00601606
0.00624695
0.00646101
0.00665386
0.00682778
0.006989
0.00714117
0.00728444
0.00742004
0.00755206
0.00768403
0.00781585
0.00794609
0.00807475
0.00820333
0.00833232
0.00846205
0.00859459
0.00873147
0.00887194
0.00901361
0.00915732
0.00930507
0.00945791
0.00961604
0.00978169
0.00995792
0.0101538
0.0103907
0.010717
0.0111348
0.0115853
0.0118004
0.00105175
0.0010519
0.00105177
0.00105207
0.00105206
0.00105151
0.00105174
0.00105171
0.00105166
0.00105162
0.00105141
0.00105183
0.00105162
0.00105189
0.00105188
0.00105185
0.00105229
0.0010523
0.00105252
0.00105253
0.00105294
0.00105279
0.0010528
0.00105238
0.00105215
0.00105222
0.00105213
0.00105224
0.00105217
0.00105181
0.00105131
0.00105112
0.00105122
0.00105122
0.00105185
0.0010533
0.00105574
0.00105953
0.00106655
0.00107676
0.00109196
0.00111234
0.00113962
0.00117418
0.00121657
0.00126649
0.00132336
0.00138451
0.00144739
0.00151276
0.0015875
0.00168173
0.00180856
0.00197993
0.00220289
0.00247481
0.00278285
0.00310778
0.00343266
0.00375105
0.00406917
0.00439826
0.00474394
0.00510191
0.00546125
0.00581376
0.00615852
0.00649804
0.00682957
0.00714621
0.00744287
0.00772142
0.00798654
0.00824132
0.00848668
0.00872544
0.00896202
0.00919932
0.00943599
0.00966964
0.00989911
0.0101242
0.0103456
0.0105656
0.0107872
0.0110125
0.0112411
0.0114743
0.0117164
0.0119751
0.0122573
0.0125673
0.0129042
0.0132622
0.0136372
0.0140284
0.0144279
0.014735
0.0148546
0.0144908
0.0010514
0.00105162
0.00105181
0.0010519
0.00105197
0.00105201
0.00105166
0.00105167
0.00105133
0.00105152
0.00105176
0.00105163
0.00105187
0.00105241
0.00105245
0.00105218
0.00105195
0.00105212
0.00105217
0.00105273
0.00105306
0.00105288
0.00105271
0.00105277
0.00105252
0.00105257
0.00105256
0.00105193
0.00105176
0.00105142
0.00105103
0.00105103
0.001051
0.0010512
0.00105167
0.00105288
0.00105555
0.00105922
0.00106613
0.00107689
0.00109247
0.00111352
0.00114093
0.00117576
0.00121865
0.00126913
0.00132701
0.00138954
0.00145396
0.00152082
0.00159636
0.00169073
0.00181701
0.00198725
0.00220847
0.00247821
0.00278319
0.00310372
0.00342211
0.00373113
0.00403705
0.00435133
0.00467998
0.00501915
0.00535869
0.00569044
0.00601401
0.00633229
0.00664319
0.00693934
0.00721539
0.00747259
0.0077155
0.00794703
0.00816801
0.00838102
0.00859051
0.00879965
0.0090077
0.00921294
0.00941502
0.00961469
0.00981275
0.0100121
0.0102178
0.0104334
0.0106583
0.0108925
0.0111391
0.0114033
0.0116921
0.0120124
0.0123656
0.0127574
0.0131905
0.0136746
0.0142164
0.0147496
0.0150051
0.0150607
0.00105299
0.00105312
0.00105312
0.00105286
0.00105291
0.00105271
0.00105265
0.00105254
0.00105283
0.00105277
0.00105313
0.00105344
0.00105354
0.00105379
0.00105398
0.00105385
0.00105361
0.00105363
0.0010534
0.00105351
0.00105357
0.00105351
0.00105363
0.00105353
0.00105343
0.00105332
0.00105327
0.00105301
0.00105285
0.00105301
0.00105259
0.00105223
0.0010524
0.00105251
0.001053
0.00105421
0.00105675
0.00106034
0.00106739
0.00107879
0.00109551
0.001118
0.00114725
0.00118405
0.00122927
0.00128317
0.00134589
0.00141602
0.00149173
0.00156991
0.00165416
0.00175388
0.00188274
0.00205396
0.0022757
0.00254571
0.00285002
0.0031652
0.00346846
0.00374646
0.00400138
0.00424601
0.00449455
0.00474649
0.00498674
0.00520548
0.00540703
0.00559824
0.00577928
0.00594441
0.00608889
0.00621302
0.0063204
0.00641341
0.00649143
0.00655407
0.00660384
0.00664411
0.00667531
0.00669324
0.00670101
0.00670337
0.00670012
0.00668138
0.0066588
0.00664101
0.00661743
0.00658978
0.00656821
0.00655626
0.00655166
0.0065548
0.00659043
0.00663769
0.00672536
0.00686844
0.00709477
0.00745028
0.00791708
0.00819339
0.00105579
0.00105581
0.00105597
0.00105571
0.00105552
0.0010554
0.00105571
0.00105575
0.00105599
0.00105602
0.0010559
0.00105645
0.00105645
0.00105651
0.0010565
0.00105628
0.00105623
0.00105647
0.00105637
0.00105633
0.00105636
0.0010564
0.00105629
0.00105609
0.00105572
0.00105579
0.00105571
0.00105546
0.00105567
0.00105558
0.00105565
0.00105542
0.00105558
0.00105575
0.0010568
0.00105736
0.00105953
0.00106396
0.00107108
0.00108376
0.00110202
0.00112706
0.00115917
0.0012
0.00124959
0.00130977
0.00138059
0.00146273
0.0015564
0.00166067
0.00177122
0.00189103
0.00203127
0.00220862
0.00243626
0.00271562
0.00303264
0.00336012
0.00366659
0.00392904
0.00414263
0.00431849
0.00446967
0.00460188
0.00472135
0.00482222
0.00489194
0.0049346
0.00496117
0.00497149
0.00497378
0.00496658
0.00493541
0.00488701
0.00483569
0.00477833
0.00470717
0.00462838
0.00454969
0.00446789
0.0043803
0.00429197
0.0042053
0.00411676
0.0040278
0.00394441
0.00386484
0.00378566
0.00371014
0.00364324
0.00358218
0.00352805
0.00348614
0.00346184
0.00345133
0.00345443
0.00352912
0.00364896
0.0038491
0.00394092
0.00106064
0.00106095
0.00106097
0.00106082
0.0010606
0.00106044
0.00106034
0.00106046
0.00106053
0.00106071
0.00106085
0.00106069
0.00106077
0.00106095
0.00106109
0.00106148
0.00106134
0.00106122
0.00106126
0.0010612
0.00106075
0.00106069
0.00106025
0.00106013
0.00105994
0.0010598
0.00105965
0.00105922
0.00105938
0.00105916
0.00105944
0.00106027
0.00106104
0.00106175
0.00106281
0.00106423
0.0010664
0.00107164
0.00107929
0.001093
0.00111384
0.00114208
0.00117934
0.00122544
0.00128198
0.00135049
0.00143289
0.00153014
0.00164509
0.00178138
0.00194015
0.00211814
0.00230863
0.00252099
0.00277284
0.00308001
0.00344259
0.00383738
0.00422545
0.00456806
0.00484854
0.00507266
0.00526362
0.00544409
0.00561374
0.00575655
0.00586108
0.00592703
0.00596054
0.00597442
0.00597671
0.00595411
0.00588662
0.00580337
0.00571476
0.00560122
0.00546813
0.00533048
0.0051829
0.00502583
0.00486738
0.00470389
0.00453597
0.00437103
0.00420484
0.00403755
0.00387684
0.0037196
0.00356688
0.00342011
0.00328342
0.00315825
0.00303864
0.00292836
0.00283653
0.00276783
0.00273762
0.00273409
0.00285792
0.0029397
0.00106361
0.00106456
0.00106426
0.00106447
0.00106454
0.00106418
0.00106448
0.00106447
0.00106504
0.0010644
0.00106473
0.00106465
0.00106465
0.0010646
0.00106437
0.00106471
0.00106473
0.00106504
0.00106477
0.00106441
0.00106427
0.00106424
0.00106421
0.00106317
0.00106302
0.00106313
0.00106299
0.00106263
0.00106279
0.00106336
0.00106425
0.00106468
0.00106568
0.00106905
0.00107197
0.00107559
0.00107996
0.00108572
0.00109595
0.00111155
0.00113521
0.00116717
0.00121037
0.00126272
0.00132852
0.00140695
0.0015028
0.00161769
0.001756
0.0019247
0.00213096
0.00238209
0.00268021
0.00301808
0.00338328
0.00378084
0.00423082
0.0047448
0.00530746
0.00587292
0.00639138
0.00684061
0.00722999
0.00758612
0.00793267
0.00827219
0.00858868
0.00885781
0.00907462
0.00925334
0.00940173
0.00948446
0.00951887
0.00952723
0.00949283
0.0093651
0.00920401
0.00902608
0.00878165
0.00849586
0.00820523
0.0078791
0.00752099
0.00716887
0.00680039
0.00640927
0.00602963
0.00565532
0.00527236
0.00490726
0.00453558
0.00416227
0.00381082
0.00346567
0.00314414
0.00286578
0.00267057
0.00257588
0.00255176
0.00259218
0.00105963
0.00106033
0.00106049
0.00106042
0.00106053
0.00106027
0.00106084
0.00106083
0.00106087
0.00106125
0.00106079
0.00106092
0.00106124
0.00106082
0.00106033
0.00106033
0.00106078
0.00106077
0.00106065
0.00106036
0.00106057
0.00106016
0.00105939
0.00105902
0.00105931
0.00105931
0.00105898
0.00105908
0.00105833
0.00105887
0.00106043
0.00106353
0.00106681
0.00107233
0.00107933
0.00108896
0.00109902
0.00110887
0.0011241
0.00114384
0.00117136
0.0012075
0.00125605
0.00131443
0.00138691
0.00147437
0.00158047
0.00170895
0.0018649
0.00205465
0.0022911
0.00258477
0.00294966
0.00339268
0.00391461
0.00450679
0.00515853
0.00585975
0.00660164
0.00737485
0.00816959
0.00897583
0.00978981
0.0106086
0.0114317
0.0122536
0.0130675
0.0138644
0.0146377
0.0153758
0.0160616
0.0166751
0.0172094
0.0176653
0.0180091
0.0182032
0.0182897
0.0183127
0.0182251
0.0179081
0.0175222
0.0170402
0.016357
0.0156145
0.0148757
0.0139983
0.0130357
0.0120858
0.0110359
0.0099867
0.00903889
0.00801773
0.00690049
0.00588618
0.00491138
0.00400433
0.00336131
0.00280548
0.00256382
0.00248927
0.00105541
0.00105493
0.00105447
0.00105419
0.00105377
0.00105363
0.0010536
0.0010536
0.00105358
0.0010534
0.00105326
0.00105322
0.00105322
0.00105324
0.00105336
0.00105395
0.00105432
0.00105441
0.00105438
0.0010542
0.00105414
0.00105383
0.00105359
0.00105354
0.0010535
0.00105355
0.00105365
0.00105413
0.00105476
0.00105636
0.00105889
0.00106234
0.00106784
0.00107538
0.00108663
0.00109957
0.00111694
0.00113534
0.00115901
0.00118593
0.0012209
0.00126211
0.00131487
0.00137657
0.00145081
0.00154
0.00164579
0.00177557
0.00193113
0.00212089
0.00235372
0.00263971
0.00299346
0.00342578
0.00395266
0.00458267
0.00531903
0.00615818
0.00709
0.00809993
0.00917853
0.01031
0.0114903
0.0127124
0.0139811
0.0152968
0.0166596
0.0180607
0.0194866
0.0209121
0.0223176
0.0236915
0.0249998
0.0262225
0.0273592
0.0283926
0.0292878
0.0300277
0.0305879
0.0308955
0.0310292
0.031062
0.0309034
0.0303473
0.0296416
0.0287811
0.0275362
0.0261055
0.0245181
0.0226063
0.0205145
0.0183285
0.015829
0.0132886
0.0108226
0.00848095
0.00635363
0.00459202
0.00330719
0.00269887
0.00117989
0.00117458
0.00117223
0.00116853
0.00116706
0.00116634
0.00116614
0.00116606
0.00116607
0.00116606
0.00116612
0.00116648
0.00116701
0.00116812
0.00116981
0.00117193
0.00117326
0.00117379
0.00117398
0.00117393
0.00117381
0.00117314
0.00117168
0.00116989
0.00116773
0.00116682
0.00116662
0.00116682
0.00116709
0.00116828
0.00117007
0.00117301
0.00117732
0.00118385
0.00119387
0.00120761
0.00122637
0.00125049
0.00128232
0.00132179
0.00137021
0.00142557
0.001489
0.00155441
0.00162338
0.00170386
0.00180163
0.00192413
0.00206965
0.00224056
0.00243863
0.00267003
0.00294757
0.00328286
0.00369602
0.00420495
0.00482278
0.00555982
0.00641884
0.00739744
0.00848062
0.00962961
0.0108152
0.0120333
0.0133154
0.0146814
0.0161448
0.0177152
0.0194067
0.0212327
0.0231671
0.0251186
0.0270526
0.028985
0.0309017
0.0327614
0.0345265
0.0361678
0.0376427
0.0389097
0.0399497
0.0407363
0.0411125
0.0412593
0.0412755
0.0409272
0.0398985
0.0385139
0.0369136
0.0347497
0.0319821
0.0289206
0.025458
0.0213889
0.0171537
0.013368
0.0100853
0.00771946
0.00598605
0.00395269
0.00422904
0.00418377
0.00416157
0.00412933
0.0041156
0.00410916
0.00410657
0.0041059
0.00410578
0.00410586
0.0041066
0.00410983
0.00411673
0.0041276
0.00414187
0.00415747
0.0041709
0.00417974
0.00418339
0.00418437
0.00418406
0.00418019
0.0041707
0.00415303
0.00412757
0.00410396
0.0040903
0.00408326
0.0040752
0.00406514
0.00405141
0.00403516
0.00401662
0.00399718
0.00397678
0.00395461
0.00393169
0.00390714
0.00388355
0.00386401
0.00385507
0.00385189
0.0038515
0.0038572
0.00387628
0.00391107
0.00396149
0.00402736
0.00410907
0.00420336
0.00429784
0.00438203
0.00446801
0.00458445
0.00476302
0.00502864
0.00539152
0.00584764
0.00638098
0.00696529
0.00758771
0.00825631
0.00900726
0.00987024
0.0108527
0.0119558
0.0131934
0.0145955
0.0161698
0.017873
0.0196412
0.0214296
0.0232189
0.0250054
0.0267876
0.0285595
0.0303081
0.0320192
0.0336526
0.0351431
0.036448
0.0375433
0.0383989
0.0389292
0.0391483
0.0391952
0.0389372
0.0379917
0.0363743
0.0341242
0.0310629
0.027137
0.0229259
0.0190656
0.0156918
0.012613
0.0099745
0.00821958
0.00724423
0.00604809
0.0336764
0.0337012
0.0337107
0.033718
0.0337196
0.0337196
0.033716
0.0337076
0.0336984
0.0336869
0.0336725
0.0336632
0.033661
0.0336615
0.0336665
0.0336737
0.03368
0.0336848
0.0336895
0.0336946
0.0337011
0.0337095
0.0337193
0.0337276
0.0337299
0.0337291
0.0337241
0.0337136
0.0336966
0.0336727
0.0336409
0.0336008
0.0335504
0.0334866
0.0334083
0.0333132
0.0331938
0.0330438
0.0328611
0.032644
0.0323853
0.0320808
0.0317302
0.0313206
0.0308508
0.0303182
0.0297145
0.0290394
0.0282942
0.0274868
0.0266197
0.0257016
0.0247469
0.0237614
0.0227547
0.0217377
0.0207214
0.019721
0.0187505
0.0178243
0.0169508
0.0161337
0.0153778
0.0146923
0.0140846
0.0135597
0.0131157
0.0127315
0.0123945
0.0121046
0.0118557
0.0116973
0.0116559
0.011662
0.0117049
0.0117825
0.0118893
0.0120212
0.0121694
0.0123172
0.0124498
0.0125445
0.0125715
0.0125489
0.0124325
0.0122309
0.0119797
0.0116039
0.0109748
0.0100206
0.00867822
0.00689498
0.00504517
0.00346061
0.00219485
0.0014871
0.00152954
0.0035015
0.00598097
0.00682244
0.00583348
0.00155788
0.00136018
0.00130393
0.00128877
0.00126097
0.00124109
0.00123741
0.00123379
0.00123295
0.00123983
0.00125859
0.00129311
0.00133844
0.00138251
0.00140581
0.00152816
0.00198363
0.00327716
0.00538166
0.00407154
0.00158526
0.00142737
0.00137303
0.00135061
0.00131164
0.00129797
0.00128945
0.00128578
0.00128548
0.00129703
0.00132325
0.00135711
0.00141566
0.00145213
0.0014989
0.00163887
0.00214434
0.00336385
0.00499804
0.00275079
0.00165673
0.00155341
0.00150319
0.00144539
0.00141641
0.00139696
0.00138782
0.00138463
0.00138623
0.00140069
0.00142419
0.00147547
0.00151491
0.00155321
0.0016024
0.00179529
0.00233529
0.00339381
0.00457154
0.00235806
0.00179174
0.00170476
0.0016066
0.00156122
0.00152295
0.00150732
0.00150031
0.00149931
0.00150979
0.00151731
0.00155552
0.00158622
0.00163027
0.00167249
0.00176182
0.00199002
0.00251046
0.0033651
0.0040997
0.00234962
0.00196857
0.00188877
0.0017947
0.00176109
0.00173704
0.00173199
0.00173093
0.00173554
0.0017362
0.00171569
0.0017228
0.00175418
0.00179273
0.00183891
0.00194666
0.00218954
0.00266342
0.00327029
0.00357133
0.00246168
0.00224241
0.00217707
0.00210678
0.00208518
0.00207361
0.00207347
0.00207109
0.00207045
0.00203952
0.00199539
0.00198577
0.0020084
0.00203446
0.00209258
0.00223272
0.00249981
0.00280598
0.00302352
0.00300481
0.00293484
0.00285642
0.00281883
0.00279422
0.00279533
0.00280193
0.00281177
0.00280677
0.00277641
0.00269263
0.00261708
0.00259597
0.00262442
0.00263838
0.00268732
0.0027118
0.00271325
0.00273479
0.00266809
0.00236797
0.00492879
0.00502822
0.00514831
0.00532599
0.00545409
0.00550185
0.00549743
0.00525598
0.00479254
0.00442374
0.00405228
0.00376678
0.0034533
0.00323006
0.00300984
0.00280735
0.00268206
0.00250948
0.00213031
0.00169657
0.0111094
0.0107471
0.0101772
0.00925771
0.00837139
0.00730571
0.00661481
0.00570062
0.0052393
0.00455332
0.00422577
0.00373621
0.00349691
0.00314893
0.00291585
0.00259359
0.00235531
0.00185501
0.0013294
0.000991105
0.0120146
0.0108559
0.00964313
0.00838899
0.00734633
0.00638957
0.00567318
0.00485656
0.00442063
0.00382264
0.00347324
0.00316943
0.00278511
0.00253687
0.00209858
0.00172605
0.0014451
0.00106708
0.00069193
0.000473613
0.0126879
0.0115789
0.0104753
0.00920931
0.0082649
0.00722227
0.00650634
0.00569078
0.00521585
0.00462148
0.00422929
0.00386854
0.00352429
0.00322798
0.00293834
0.00258303
0.00222182
0.00166456
0.00114041
0.000795177
0.00803428
0.00800384
0.00799325
0.00774738
0.00758898
0.00710151
0.00658322
0.00582455
0.00536597
0.00475162
0.00445047
0.00400488
0.00378337
0.00344263
0.00326608
0.00301855
0.00289494
0.00262198
0.00203299
0.00155078
0.00363457
0.00360166
0.00357052
0.00355664
0.00356781
0.00357346
0.00360164
0.00361335
0.00361359
0.00346557
0.00334899
0.00329309
0.00321839
0.00318141
0.00308026
0.00302916
0.00299675
0.0029918
0.00275344
0.00230649
0.00260733
0.00251343
0.00245962
0.00240788
0.0023924
0.00238088
0.00237973
0.00236722
0.00235437
0.00229718
0.00224835
0.00223491
0.00226203
0.00230658
0.00243763
0.00265952
0.00288581
0.00310974
0.00323381
0.00303424
0.00231664
0.00209109
0.00202182
0.00194541
0.00192042
0.00190261
0.00189906
0.00189579
0.00189497
0.00186857
0.00184086
0.00183819
0.00188697
0.00193247
0.00201377
0.00218289
0.00255895
0.00311856
0.00359066
0.00369145
0.00225713
0.00188748
0.00180534
0.00170029
0.00166116
0.00162907
0.00162083
0.00161869
0.00162745
0.00163088
0.00162018
0.00164538
0.00167458
0.00172792
0.0017995
0.0019446
0.00225196
0.00287163
0.00377434
0.00430412
0.00232655
0.0017352
0.00165671
0.00156245
0.00151777
0.00147396
0.00145362
0.00144416
0.0014408
0.00145192
0.00145975
0.00149271
0.00153999
0.00157809
0.00162163
0.00171963
0.00202896
0.00269814
0.0038362
0.00485861
0.00291171
0.00161736
0.00150197
0.00145329
0.00139795
0.00137136
0.00134653
0.0013368
0.00133339
0.00133413
0.00134926
0.00137049
0.00141582
0.00147326
0.00152506
0.00158695
0.00180848
0.00245757
0.00384619
0.00535969
0.00449979
0.00157056
0.0014106
0.00135539
0.00133551
0.00129926
0.00127697
0.00126628
0.00126156
0.00126119
0.00127101
0.00129676
0.00132693
0.00137815
0.00142463
0.00148287
0.00166273
0.00225691
0.00375043
0.00581295
0.00649175
0.00154936
0.00133743
0.0012741
0.0012515
0.00124228
0.00121723
0.00120407
0.00119802
0.00119596
0.0012005
0.00121812
0.0012565
0.00130428
0.00136519
0.00139757
0.00153066
0.00206481
0.00365993
0.00622078
0.00396626
0.0037501
0.00374678
0.00374681
0.00374653
0.00374628
0.00374612
0.00374604
0.003746
0.00374599
0.00374599
0.003746
0.00374605
0.00374613
0.00374629
0.00374653
0.00374681
0.00374678
0.0037501
0.00396625
0.00442666
0.00375399
0.00374161
0.00374104
0.00374059
0.00374012
0.00373987
0.00373974
0.00373967
0.00373963
0.00373963
0.00373966
0.00373973
0.00373986
0.00374012
0.00374059
0.00374104
0.00374162
0.003754
0.00442669
0.00486775
0.00376066
0.00373258
0.00373244
0.00373272
0.00373266
0.00373251
0.00373239
0.00373232
0.00373228
0.00373228
0.00373232
0.00373239
0.00373251
0.00373265
0.00373272
0.00373244
0.00373258
0.00376066
0.00486774
0.00527659
0.00377154
0.00372439
0.00372398
0.00372491
0.00372522
0.00372523
0.00372516
0.00372511
0.00372508
0.00372508
0.00372511
0.00372516
0.00372522
0.00372522
0.0037249
0.00372397
0.00372438
0.00377153
0.0052766
0.0057223
0.00378571
0.00371607
0.0037152
0.00371688
0.00371769
0.00371793
0.00371795
0.00371791
0.00371789
0.00371789
0.00371791
0.00371794
0.00371792
0.00371769
0.00371687
0.0037152
0.00371607
0.00378569
0.00572227
0.00620075
0.00379725
0.00370536
0.00370505
0.00370805
0.00370971
0.00371038
0.00371059
0.00371063
0.00371062
0.00371062
0.00371061
0.00371057
0.00371036
0.00370968
0.00370803
0.00370505
0.00370538
0.00379731
0.00620077
0.00662617
0.00380669
0.00369381
0.00369425
0.0036987
0.00370135
0.0037026
0.0037031
0.00370326
0.00370329
0.00370328
0.00370322
0.00370305
0.00370253
0.00370128
0.00369863
0.00369418
0.0036937
0.00380639
0.00662624
0.00698028
0.0038169
0.00368304
0.00368374
0.0036894
0.00369298
0.00369481
0.00369563
0.00369593
0.00369602
0.003696
0.00369588
0.00369555
0.00369472
0.0036929
0.00368934
0.00368368
0.00368298
0.00381688
0.00698033
0.0073416
0.00382481
0.00367104
0.00367281
0.00368
0.00368459
0.00368705
0.00368822
0.0036887
0.00368886
0.00368885
0.00368867
0.00368817
0.003687
0.00368456
0.00367998
0.0036728
0.003671
0.00382443
0.00734174
0.00775853
0.00382524
0.00365506
0.00366008
0.00366974
0.00367576
0.00367901
0.0036806
0.00368128
0.0036815
0.00368147
0.0036812
0.00368049
0.0036789
0.00367568
0.0036697
0.00366006
0.00365496
0.00382463
0.00775876
0.00817684
0.00382319
0.00363546
0.00364529
0.0036582
0.00366601
0.00367019
0.00367221
0.00367303
0.00367326
0.00367316
0.00367277
0.00367183
0.00366979
0.00366564
0.00365791
0.00364504
0.0036351
0.0038223
0.00817728
0.00851339
0.00381668
0.00361479
0.00362971
0.00364597
0.00365561
0.00366074
0.00366315
0.00366405
0.00366423
0.00366408
0.00366362
0.00366251
0.00366002
0.00365493
0.00364538
0.00362919
0.00361414
0.0038151
0.00851418
0.00875732
0.00380962
0.00359596
0.00361499
0.00363419
0.00364565
0.00365189
0.00365503
0.0036565
0.00365705
0.00365694
0.00365624
0.00365461
0.00365132
0.00364503
0.00363362
0.00361442
0.00359517
0.00380779
0.00875876
0.00897724
0.00380412
0.00357851
0.00360121
0.00362354
0.00363743
0.00364593
0.00365135
0.00365428
0.00365536
0.00365522
0.00365391
0.00365109
0.00364598
0.00363751
0.00362361
0.00360103
0.00357781
0.00380232
0.00897947
0.00924475
0.00379581
0.00355858
0.00358713
0.00361434
0.00363228
0.00364475
0.00365194
0.00365542
0.00365682
0.00365698
0.00365537
0.00365151
0.00364496
0.0036335
0.0036154
0.00358778
0.0035582
0.003794
0.00924764
0.00956559
0.00377739
0.00353337
0.00357228
0.00360679
0.00363128
0.00364667
0.00365557
0.00366114
0.00366375
0.00366291
0.00366046
0.00365637
0.00364729
0.00363334
0.00361005
0.00357468
0.00353383
0.00377565
0.00956885