/*--------------------------------*- C++ -*----------------------------------*\
| =========                 |                                                 |
| \\      /  F ield         | OpenFOAM: The Open Source CFD Toolbox           |
|  \\    /   O peration     | Version:  2.1.0                                 |
|   \\  /    A nd           | Web:      www.OpenFOAM.org                      |
|    \\/     M anipulation  |                                                 |
\*---------------------------------------------------------------------------*/
FoamFile
{
    version     2.0;
    format      ascii;
    class       volScalarField;
    location    "0.05";
    object      nut;
}
// * * * * * * * * * * * * * * * * * * * * * * * * * * * * * * * * * * * * * //

dimensions      [0 2 -1 0 0 0 0];

internalField   nonuniform List<scalar> 
6400
(
5.91731e-06
5.91492e-06
5.913e-06
5.91191e-06
5.91128e-06
5.91128e-06
5.91172e-06
5.91231e-06
5.91285e-06
5.91354e-06
5.91468e-06
5.91555e-06
5.91547e-06
5.91548e-06
5.91532e-06
5.91465e-06
5.91357e-06
5.9123e-06
5.91108e-06
5.91001e-06
5.90914e-06
5.90827e-06
5.90804e-06
5.9085e-06
5.90885e-06
5.90885e-06
5.90962e-06
5.91077e-06
5.91178e-06
5.91232e-06
5.91231e-06
5.91187e-06
5.91056e-06
5.90784e-06
5.90386e-06
5.89852e-06
5.89076e-06
5.87913e-06
5.86346e-06
5.84422e-06
5.82071e-06
5.79176e-06
5.75606e-06
5.71372e-06
5.66416e-06
5.60578e-06
5.53853e-06
5.4614e-06
5.37429e-06
5.27789e-06
5.17318e-06
5.06114e-06
4.9428e-06
4.81915e-06
4.69138e-06
4.56076e-06
4.4292e-06
4.29913e-06
4.17348e-06
4.05526e-06
3.94555e-06
3.84586e-06
3.75822e-06
3.68526e-06
3.62983e-06
3.59315e-06
3.57566e-06
3.57219e-06
3.58107e-06
3.60319e-06
3.64294e-06
3.70501e-06
3.79913e-06
3.91799e-06
4.05208e-06
4.20219e-06
4.36882e-06
4.55142e-06
4.74844e-06
4.95073e-06
5.15401e-06
5.36554e-06
5.57849e-06
5.77982e-06
5.97695e-06
6.19346e-06
6.41845e-06
6.60857e-06
6.74045e-06
6.79128e-06
6.70005e-06
6.35337e-06
5.57617e-06
4.29834e-06
2.62294e-06
1.47424e-06
1.39125e-06
2.41078e-06
2.54089e-06
2.76896e-06
5.79232e-06
5.78259e-06
5.78499e-06
5.80242e-06
5.8239e-06
5.83832e-06
5.84233e-06
5.84271e-06
5.84129e-06
5.83418e-06
5.81721e-06
5.79216e-06
5.76478e-06
5.74501e-06
5.73938e-06
5.73743e-06
5.73708e-06
5.737e-06
5.737e-06
5.73705e-06
5.73764e-06
5.73801e-06
5.73902e-06
5.7414e-06
5.74253e-06
5.74389e-06
5.74458e-06
5.7445e-06
5.74396e-06
5.74221e-06
5.73892e-06
5.73394e-06
5.72812e-06
5.72252e-06
5.71851e-06
5.71816e-06
5.72307e-06
5.73395e-06
5.75155e-06
5.78303e-06
5.83564e-06
5.9032e-06
5.98304e-06
6.08135e-06
6.21105e-06
6.38045e-06
6.59127e-06
6.84805e-06
7.14894e-06
7.43502e-06
7.55481e-06
7.64196e-06
7.72034e-06
7.83946e-06
8.04943e-06
8.38087e-06
8.83719e-06
9.40043e-06
1.00337e-05
1.06897e-05
1.13434e-05
1.20128e-05
1.275e-05
1.35788e-05
1.44956e-05
1.54905e-05
1.65721e-05
1.77552e-05
1.90074e-05
2.02636e-05
2.14781e-05
2.2598e-05
2.36063e-05
2.45029e-05
2.5289e-05
2.59646e-05
2.65332e-05
2.69763e-05
2.72582e-05
2.73524e-05
2.725e-05
2.6961e-05
2.64596e-05
2.57361e-05
2.49088e-05
2.39578e-05
2.27289e-05
2.12629e-05
1.96209e-05
1.77969e-05
1.58024e-05
1.37169e-05
1.16788e-05
9.85169e-06
8.17851e-06
6.48878e-06
5.15198e-06
4.21335e-06
3.65903e-06
4.428e-06
6.69542e-06
6.69538e-06
6.68598e-06
6.66872e-06
6.65616e-06
6.65404e-06
6.65359e-06
6.65373e-06
6.65559e-06
6.66088e-06
6.67103e-06
6.68482e-06
6.70068e-06
6.72022e-06
6.72998e-06
6.73385e-06
6.73541e-06
6.73615e-06
6.73634e-06
6.73684e-06
6.73658e-06
6.73467e-06
6.7305e-06
6.72958e-06
6.73011e-06
6.73227e-06
6.73643e-06
6.7444e-06
6.76167e-06
6.79399e-06
6.8444e-06
6.91044e-06
6.99418e-06
7.09966e-06
7.22753e-06
7.38067e-06
7.57154e-06
7.80996e-06
8.10884e-06
8.45538e-06
8.869e-06
9.3494e-06
9.64856e-06
9.36094e-06
9.07515e-06
8.82807e-06
8.66373e-06
8.5733e-06
8.54809e-06
8.58063e-06
8.67067e-06
8.83062e-06
9.08352e-06
9.45414e-06
9.96595e-06
1.06329e-05
1.14527e-05
1.24143e-05
1.34909e-05
1.46577e-05
1.58527e-05
1.70049e-05
1.80648e-05
1.90539e-05
2.00265e-05
2.10112e-05
2.20281e-05
2.30874e-05
2.42052e-05
2.53482e-05
2.64172e-05
2.73725e-05
2.82289e-05
2.89832e-05
2.96065e-05
3.00763e-05
3.03806e-05
3.05031e-05
3.04358e-05
3.019e-05
2.97122e-05
2.89999e-05
2.81976e-05
2.73646e-05
2.63186e-05
2.50093e-05
2.36795e-05
2.2354e-05
2.08987e-05
1.93866e-05
1.79025e-05
1.63918e-05
1.47945e-05
1.30706e-05
1.13402e-05
9.49144e-06
7.78312e-06
6.25473e-06
5.4653e-06
6.57768e-06
3.03e-05
3.02984e-05
3.0178e-05
3.00477e-05
3.00001e-05
2.99528e-05
2.99282e-05
2.99297e-05
2.99615e-05
3.00319e-05
3.01387e-05
3.02907e-05
3.04392e-05
3.05787e-05
3.05849e-05
3.06149e-05
3.06645e-05
3.06603e-05
3.06589e-05
3.06537e-05
3.06858e-05
3.06605e-05
3.06476e-05
3.06482e-05
3.06674e-05
3.06749e-05
3.06756e-05
3.07137e-05
3.08292e-05
3.10457e-05
3.13383e-05
3.16351e-05
3.19911e-05
3.24608e-05
3.31675e-05
2.46427e-05
3.56867e-05
2.11454e-05
1.97969e-05
1.77275e-05
1.54997e-05
1.39777e-05
1.27372e-05
1.17589e-05
1.09806e-05
1.03733e-05
9.92501e-06
9.61743e-06
9.44836e-06
9.40806e-06
9.5119e-06
9.78494e-06
1.02427e-05
1.08855e-05
1.17003e-05
1.26579e-05
1.3715e-05
1.48326e-05
1.59707e-05
1.70991e-05
1.81951e-05
1.92435e-05
2.0239e-05
2.11846e-05
2.209e-05
2.29606e-05
2.37989e-05
2.4594e-05
2.53306e-05
2.59941e-05
2.65827e-05
2.70702e-05
2.74451e-05
2.77247e-05
2.79083e-05
2.79816e-05
2.79344e-05
2.77309e-05
2.73965e-05
2.70147e-05
2.65934e-05
2.59726e-05
2.52432e-05
2.45103e-05
2.36407e-05
2.26236e-05
2.1617e-05
2.05628e-05
1.93304e-05
1.81184e-05
1.68119e-05
1.54061e-05
1.3966e-05
1.24292e-05
1.08486e-05
9.25982e-06
7.9048e-06
7.08875e-06
6.19111e-06
5.74121e-06
8.4678e-05
5.14533e-05
8.44401e-05
8.43398e-05
8.43336e-05
8.43154e-05
8.43725e-05
8.45282e-05
4.50971e-05
8.44592e-05
5.91734e-05
8.50489e-05
8.55508e-05
7.02047e-05
8.09441e-05
8.6024e-05
8.58984e-05
5.68667e-05
8.59653e-05
8.6036e-05
8.5699e-05
8.59229e-05
8.59836e-05
4.19885e-05
8.5648e-05
8.58833e-05
8.5949e-05
5.81649e-05
8.61496e-05
6.68884e-05
6.7217e-05
8.36465e-05
9.05218e-05
8.41404e-05
4.66122e-05
6.17435e-05
6.65893e-05
2.68491e-05
2.79486e-05
2.33921e-05
1.91241e-05
1.68547e-05
1.49203e-05
1.34748e-05
1.23781e-05
1.15507e-05
1.09412e-05
1.05257e-05
1.02851e-05
1.02201e-05
1.0401e-05
1.08734e-05
1.16285e-05
1.25789e-05
1.36196e-05
1.46637e-05
1.56587e-05
1.65877e-05
1.74594e-05
1.8283e-05
1.9075e-05
1.98345e-05
2.05618e-05
2.12509e-05
2.18983e-05
2.25001e-05
2.30572e-05
2.35715e-05
2.40403e-05
2.44507e-05
2.479e-05
2.50572e-05
2.52472e-05
2.53514e-05
2.53328e-05
2.52387e-05
2.50899e-05
2.48333e-05
2.44205e-05
2.39539e-05
2.33592e-05
2.26581e-05
2.16239e-05
2.06007e-05
1.9397e-05
1.82389e-05
1.718e-05
1.59557e-05
1.4819e-05
1.38849e-05
1.27316e-05
1.16188e-05
1.04962e-05
9.40008e-06
8.63623e-06
7.92204e-06
6.90721e-06
6.53817e-06
6.38328e-06
6.42932e-06
4.96535e-05
2.44329e-05
8.8572e-05
8.37132e-05
2.83729e-05
5.57888e-05
2.75373e-05
6.64282e-05
5.28596e-05
0.000171822
6.29602e-05
6.24733e-05
5.28457e-05
6.55493e-05
2.60523e-05
0.000107579
7.09477e-05
2.83785e-05
6.70312e-05
4.15664e-05
0.000174959
0.000172682
6.97647e-05
4.72247e-05
5.53178e-05
0.000134258
5.41349e-05
9.08801e-05
4.84117e-05
6.89428e-05
8.56099e-05
7.42967e-05
0.000119816
0.000191958
2.80975e-05
9.08908e-05
3.47519e-05
3.30199e-05
4.24402e-05
2.6893e-05
2.30214e-05
2.05271e-05
1.77972e-05
1.59118e-05
1.44624e-05
1.33437e-05
1.25068e-05
1.19081e-05
1.15285e-05
1.14548e-05
1.18502e-05
1.26897e-05
1.38067e-05
1.43933e-05
1.47689e-05
1.54372e-05
1.64053e-05
1.76029e-05
1.87846e-05
1.94401e-05
2.00254e-05
2.05129e-05
2.0915e-05
2.12556e-05
2.15622e-05
2.18453e-05
2.20458e-05
2.19842e-05
2.18459e-05
2.16839e-05
2.1442e-05
2.11269e-05
2.08009e-05
2.04483e-05
1.99548e-05
1.94252e-05
1.89209e-05
1.83605e-05
1.77187e-05
1.70759e-05
1.6418e-05
1.5752e-05
1.50779e-05
1.43992e-05
1.37167e-05
1.30617e-05
1.24168e-05
1.17737e-05
1.11827e-05
1.06006e-05
9.97803e-06
9.41299e-06
8.8873e-06
8.39409e-06
7.94939e-06
7.54955e-06
7.26899e-06
7.14466e-06
7.1215e-06
7.31087e-06
2.63899e-05
0.000269369
2.8845e-05
3.97941e-05
4.87805e-05
9.35937e-05
4.32938e-05
0.000105304
7.79484e-05
2.94017e-05
8.71714e-05
6.45788e-05
6.24202e-05
5.33083e-05
7.75623e-05
4.38393e-05
3.3353e-05
7.31524e-05
7.51243e-05
5.73597e-05
7.59923e-05
0.000145315
4.3805e-05
0.000123411
4.19058e-05
0.000213204
5.76963e-05
8.4774e-05
6.29477e-05
0.000139308
3.11111e-05
9.11518e-05
0.000121981
4.43605e-05
4.14286e-05
0.000100643
2.40164e-05
5.39452e-05
6.58671e-05
2.64772e-05
2.8252e-05
2.53951e-05
2.16252e-05
1.94981e-05
1.7648e-05
1.6178e-05
1.50475e-05
1.42024e-05
1.36649e-05
1.37809e-05
1.47077e-05
1.36429e-05
1.30377e-05
1.2924e-05
1.32903e-05
1.41018e-05
1.52341e-05
1.64729e-05
1.75793e-05
1.83972e-05
1.89227e-05
1.92542e-05
1.95139e-05
1.97662e-05
1.99641e-05
2.00361e-05
1.99694e-05
1.97942e-05
1.95535e-05
1.92883e-05
1.90003e-05
1.85919e-05
1.81044e-05
1.76402e-05
1.71623e-05
1.66238e-05
1.60869e-05
1.55679e-05
1.50376e-05
1.4511e-05
1.40284e-05
1.35439e-05
1.30622e-05
1.26028e-05
1.218e-05
1.17491e-05
1.13363e-05
1.09487e-05
1.05704e-05
1.02001e-05
9.83994e-06
9.52174e-06
9.21809e-06
8.938e-06
8.70694e-06
8.54537e-06
8.43738e-06
8.427e-06
8.78113e-06
9.03899e-06
3.59668e-05
2.40309e-05
2.81126e-05
7.93234e-05
0.000135063
5.21609e-05
4.93725e-05
4.51306e-05
3.79874e-05
1.9312e-05
9.84415e-05
0.000160217
6.64637e-05
8.3085e-05
4.35863e-05
3.38487e-05
7.70856e-05
8.50131e-05
9.42362e-05
0.0001001
9.7535e-05
4.26766e-05
6.16065e-05
5.91751e-05
8.135e-05
4.44244e-05
4.86781e-05
7.24043e-05
2.6839e-05
5.36286e-05
7.86453e-05
5.55426e-05
8.88103e-05
3.44341e-05
0.000190717
5.959e-05
2.92954e-05
8.61017e-05
5.39361e-05
2.73033e-05
3.73289e-05
3.0926e-05
2.63695e-05
2.4415e-05
2.21439e-05
2.03302e-05
1.89274e-05
1.78002e-05
1.72909e-05
1.58971e-05
1.38771e-05
1.26467e-05
1.20795e-05
1.21108e-05
1.26759e-05
1.36696e-05
1.49113e-05
1.61724e-05
1.72467e-05
1.80488e-05
1.86275e-05
1.90998e-05
1.95429e-05
1.99363e-05
2.02536e-05
2.04636e-05
2.05558e-05
2.05785e-05
2.05847e-05
2.05527e-05
2.0388e-05
2.01692e-05
1.99397e-05
1.97113e-05
1.94641e-05
1.91826e-05
1.88796e-05
1.85766e-05
1.82781e-05
1.7982e-05
1.76737e-05
1.73571e-05
1.70428e-05
1.67286e-05
1.64119e-05
1.60913e-05
1.57741e-05
1.54525e-05
1.51164e-05
1.47735e-05
1.44299e-05
1.4084e-05
1.3738e-05
1.34133e-05
1.31594e-05
1.29524e-05
1.28871e-05
1.30818e-05
1.36409e-05
1.40269e-05
8.08984e-05
4.61242e-05
3.50046e-05
0.000170482
6.1422e-05
3.51916e-05
8.39515e-05
6.86731e-05
3.46161e-05
7.72166e-05
2.74039e-05
7.01877e-05
4.67744e-05
6.96798e-05
0.000143607
0.000215181
4.42275e-05
0.000117124
0.000348255
0.000168932
4.6707e-05
2.50239e-05
9.61705e-05
8.08978e-05
0.000180647
0.000133388
9.72304e-05
3.26522e-05
4.08969e-05
4.0614e-05
5.79354e-05
3.48826e-05
0.000106818
4.50668e-05
9.33785e-05
4.77555e-05
4.8705e-05
8.55972e-05
4.07628e-05
3.38357e-05
4.99742e-05
3.58115e-05
3.17901e-05
3.01796e-05
2.74164e-05
2.54468e-05
2.38798e-05
2.25336e-05
1.83765e-05
1.52322e-05
1.3207e-05
1.20379e-05
1.15792e-05
1.17402e-05
1.24405e-05
1.35601e-05
1.49132e-05
1.62753e-05
1.7478e-05
1.84882e-05
1.93937e-05
2.03085e-05
2.12762e-05
2.22478e-05
2.3128e-05
2.38753e-05
2.45289e-05
2.51321e-05
2.56736e-05
2.61143e-05
2.64402e-05
2.66778e-05
2.68609e-05
2.69976e-05
2.70831e-05
2.71269e-05
2.71515e-05
2.71674e-05
2.71706e-05
2.71566e-05
2.71294e-05
2.70958e-05
2.70547e-05
2.70082e-05
2.69646e-05
2.6929e-05
2.68978e-05
2.68646e-05
2.6834e-05
2.68114e-05
2.67987e-05
2.67954e-05
2.68071e-05
2.68395e-05
2.691e-05
2.70586e-05
2.73732e-05
2.78783e-05
2.85688e-05
2.63254e-05
8.27812e-05
6.35185e-05
0.000115418
5.71645e-05
4.22754e-05
0.000157679
5.3866e-05
6.38803e-05
1.72622e-05
1.96757e-05
0.000128141
3.66495e-05
0.000101607
4.83746e-05
3.68421e-05
0.000125017
0.000107684
5.3221e-05
0.000111212
8.97338e-05
3.95258e-05
6.92584e-05
3.74417e-05
0.000202059
0.00018562
5.23113e-05
7.09697e-05
4.91599e-05
5.07686e-05
5.12429e-05
0.000117379
0.000209913
6.27222e-05
5.96284e-05
0.000112256
5.35419e-05
8.19691e-05
8.80767e-05
4.06578e-05
4.23094e-05
5.67276e-05
3.86505e-05
3.59997e-05
3.44482e-05
3.14393e-05
2.96717e-05
2.80316e-05
2.27966e-05
1.80425e-05
1.48937e-05
1.28946e-05
1.17706e-05
1.13668e-05
1.15873e-05
1.23498e-05
1.35303e-05
1.49404e-05
1.63623e-05
1.76459e-05
1.87827e-05
1.98772e-05
2.10353e-05
2.22748e-05
2.35251e-05
2.46988e-05
2.57681e-05
2.67647e-05
2.77164e-05
2.85964e-05
2.93581e-05
2.99872e-05
3.05121e-05
3.09598e-05
3.13348e-05
3.16352e-05
3.18794e-05
3.20904e-05
3.22768e-05
3.24287e-05
3.25382e-05
3.26074e-05
3.26358e-05
3.26226e-05
3.2576e-05
3.2508e-05
3.24241e-05
3.23213e-05
3.22019e-05
3.20786e-05
3.19692e-05
3.18868e-05
3.18365e-05
3.18091e-05
3.17831e-05
3.17418e-05
3.16823e-05
3.1598e-05
3.12969e-05
3.08763e-05
2.98459e-05
7.09972e-05
6.34228e-05
5.49222e-05
4.4945e-05
9.03021e-05
8.22797e-05
6.3162e-05
2.38899e-05
0.000129949
2.87493e-05
4.04012e-05
0.000101142
2.99805e-05
4.61662e-05
6.02056e-05
0.000122248
0.000122964
9.13183e-05
0.000117595
0.000113471
4.04595e-05
2.28228e-05
9.32204e-05
6.4154e-05
9.61335e-05
0.000158764
5.74839e-05
0.000113732
7.48202e-05
9.47046e-05
0.000236955
2.95324e-05
3.95758e-05
6.17275e-05
8.68817e-05
9.03287e-05
4.59745e-05
7.27783e-05
4.11837e-05
3.84221e-05
5.52578e-05
3.79075e-05
3.48159e-05
3.34275e-05
3.05223e-05
2.87343e-05
2.71473e-05
2.28937e-05
1.81366e-05
1.49805e-05
1.29671e-05
1.18262e-05
1.14035e-05
1.16038e-05
1.23443e-05
1.35026e-05
1.48897e-05
1.62865e-05
1.75388e-05
1.86327e-05
1.9672e-05
2.07652e-05
2.19334e-05
2.31101e-05
2.42111e-05
2.52076e-05
2.61332e-05
2.70175e-05
2.78379e-05
2.85456e-05
2.91246e-05
2.96006e-05
3.00007e-05
3.03295e-05
3.05849e-05
3.07852e-05
3.09553e-05
3.11042e-05
3.12245e-05
3.13124e-05
3.13717e-05
3.14066e-05
3.14168e-05
3.14125e-05
3.14124e-05
3.14257e-05
3.14472e-05
3.1475e-05
3.15166e-05
3.15823e-05
3.16847e-05
3.18357e-05
3.2034e-05
3.2278e-05
3.25638e-05
3.28978e-05
3.3285e-05
3.35949e-05
3.34876e-05
3.33163e-05
4.61577e-05
5.75252e-05
4.32847e-05
0.000178472
7.54654e-05
7.69016e-05
0.000111165
4.51176e-05
2.60123e-05
0.000107915
2.66595e-05
2.80623e-05
0.000347541
3.42688e-05
3.82029e-05
0.000278244
0.00010745
6.65501e-05
0.000151059
0.000127795
4.95013e-05
2.32346e-05
4.85207e-05
9.45854e-05
6.56251e-05
6.56607e-05
0.000110439
0.000359596
0.000104234
6.09837e-05
5.71704e-05
5.08894e-05
6.483e-05
7.80683e-05
5.25887e-05
0.00012408
3.65208e-05
0.000112221
4.47151e-05
2.93264e-05
4.66424e-05
3.45122e-05
2.99613e-05
2.84998e-05
2.60073e-05
2.41563e-05
2.27107e-05
2.14977e-05
1.85932e-05
1.5433e-05
1.33767e-05
1.21683e-05
1.16646e-05
1.17773e-05
1.24275e-05
1.3495e-05
1.47952e-05
1.60988e-05
1.72276e-05
1.81334e-05
1.88978e-05
1.96404e-05
2.04311e-05
2.12285e-05
2.19294e-05
2.24931e-05
2.29698e-05
2.34078e-05
2.38001e-05
2.41069e-05
2.43107e-05
2.44292e-05
2.4487e-05
2.44898e-05
2.44303e-05
2.43081e-05
2.41434e-05
2.39499e-05
2.37242e-05
2.34555e-05
2.31582e-05
2.2851e-05
2.25323e-05
2.2168e-05
2.18004e-05
2.14575e-05
2.11019e-05
2.07408e-05
2.04063e-05
2.01057e-05
1.98289e-05
1.95735e-05
1.94106e-05
1.92736e-05
1.92389e-05
1.93342e-05
1.9623e-05
2.02304e-05
2.12949e-05
2.16857e-05
4.49255e-05
8.91545e-05
5.22064e-05
6.60033e-05
5.08363e-05
4.47448e-05
5.83908e-05
5.83161e-05
3.98001e-05
4.49128e-05
0.000207779
3.84527e-05
4.98271e-05
0.000175886
0.0001009
0.000202373
0.000100217
8.74002e-05
0.000151982
6.27446e-05
5.0305e-05
4.42275e-05
3.16217e-05
3.41827e-05
9.66408e-05
5.69958e-05
3.98962e-05
9.14774e-05
4.35391e-05
2.80273e-05
5.63495e-05
3.0262e-05
3.92248e-05
0.000148691
3.4378e-05
0.000121955
4.48473e-05
3.53266e-05
7.85037e-05
2.43712e-05
3.39896e-05
2.97288e-05
2.50774e-05
2.31988e-05
2.11473e-05
1.94866e-05
1.81947e-05
1.71754e-05
1.67397e-05
1.61843e-05
1.41437e-05
1.2871e-05
1.224e-05
1.21931e-05
1.26795e-05
1.35966e-05
1.47701e-05
1.59671e-05
1.69714e-05
1.76816e-05
1.81385e-05
1.84586e-05
1.87247e-05
1.89422e-05
1.91052e-05
1.91814e-05
1.91413e-05
1.90214e-05
1.88651e-05
1.86596e-05
1.84304e-05
1.81778e-05
1.78558e-05
1.74879e-05
1.71198e-05
1.67422e-05
1.63302e-05
1.59056e-05
1.54935e-05
1.50802e-05
1.46582e-05
1.42455e-05
1.38478e-05
1.34521e-05
1.30634e-05
1.27013e-05
1.23578e-05
1.20192e-05
1.16951e-05
1.14006e-05
1.11243e-05
1.08687e-05
1.0648e-05
1.04754e-05
1.03378e-05
1.02287e-05
1.0307e-05
1.05038e-05
1.10055e-05
1.12651e-05
5.3577e-05
5.28827e-05
9.19968e-05
4.90773e-05
7.16856e-05
7.08412e-05
9.6987e-05
0.000109646
3.81331e-05
3.39534e-05
1.8542e-05
9.51567e-05
7.62411e-05
4.25613e-05
0.000102389
4.23733e-05
9.65619e-05
8.98617e-05
0.000102899
8.48982e-05
5.11835e-05
6.77362e-05
6.00344e-05
3.15338e-05
6.13971e-05
6.72454e-05
0.000104541
0.000109748
5.70438e-05
4.3978e-05
3.26136e-05
7.07741e-05
3.40024e-05
0.000148529
5.58721e-05
4.73414e-05
0.000104915
1.99382e-05
0.000102909
2.61123e-05
2.59541e-05
2.44046e-05
2.09198e-05
1.88821e-05
1.71672e-05
1.57945e-05
1.47431e-05
1.39503e-05
1.34562e-05
1.3572e-05
1.44433e-05
1.3908e-05
1.32616e-05
1.30737e-05
1.33473e-05
1.40545e-05
1.50925e-05
1.62599e-05
1.73117e-05
1.80717e-05
1.85184e-05
1.87478e-05
1.8895e-05
1.90483e-05
1.91867e-05
1.92386e-05
1.91714e-05
1.90052e-05
1.87767e-05
1.8524e-05
1.82641e-05
1.79543e-05
1.75398e-05
1.71117e-05
1.67001e-05
1.62425e-05
1.57521e-05
1.52697e-05
1.47817e-05
1.42829e-05
1.37919e-05
1.33006e-05
1.28097e-05
1.23369e-05
1.18657e-05
1.1395e-05
1.09526e-05
1.0527e-05
1.01165e-05
9.72913e-06
9.37662e-06
9.05756e-06
8.75814e-06
8.48439e-06
8.25079e-06
8.06684e-06
7.98144e-06
7.90009e-06
8.21069e-06
8.43711e-06
0.000136403
0.00010968
9.80359e-05
9.67982e-05
3.01247e-05
0.000104215
5.20683e-05
8.29502e-05
5.64913e-05
0.000127781
4.4508e-05
5.12101e-05
0.000172698
4.32724e-05
0.000120191
4.25244e-05
0.000109242
5.26872e-05
0.00017049
0.000171396
4.6039e-05
4.84933e-05
3.34884e-05
0.000173049
6.38523e-05
5.35249e-05
5.22775e-05
8.34806e-05
3.9092e-05
4.25692e-05
4.27966e-05
5.15536e-05
0.000186356
7.32256e-05
0.000201106
3.03847e-05
0.000105771
2.35373e-05
4.27999e-05
2.81558e-05
2.21805e-05
2.01174e-05
1.75572e-05
1.57237e-05
1.43315e-05
1.32481e-05
1.24487e-05
1.18723e-05
1.15046e-05
1.14341e-05
1.17983e-05
1.26051e-05
1.36905e-05
1.45349e-05
1.48624e-05
1.54544e-05
1.63243e-05
1.74361e-05
1.8551e-05
1.91811e-05
1.97548e-05
2.02431e-05
2.06522e-05
2.10058e-05
2.13314e-05
2.16424e-05
2.18564e-05
2.18658e-05
2.17779e-05
2.16437e-05
2.14913e-05
2.1242e-05
2.09358e-05
2.06224e-05
2.02688e-05
1.97722e-05
1.92545e-05
1.87488e-05
1.81572e-05
1.75294e-05
1.69174e-05
1.62476e-05
1.55591e-05
1.49104e-05
1.42266e-05
1.35218e-05
1.28577e-05
1.22014e-05
1.15392e-05
1.09199e-05
1.02831e-05
9.64796e-06
9.06201e-06
8.47819e-06
7.9265e-06
7.46075e-06
7.14758e-06
7.01325e-06
6.9982e-06
7.13138e-06
8.40447e-05
8.46302e-05
8.4941e-05
8.48468e-05
8.51766e-05
8.50583e-05
8.53382e-05
8.53531e-05
8.52058e-05
3.52959e-05
7.19398e-05
8.51633e-05
6.4159e-05
8.47105e-05
8.44494e-05
8.42586e-05
5.23937e-05
8.45104e-05
8.45392e-05
8.439e-05
8.47285e-05
8.49049e-05
5.72266e-05
8.49588e-05
8.36524e-05
7.24276e-05
8.65958e-05
8.69797e-05
8.67948e-05
6.30225e-05
8.83978e-05
7.78779e-05
9.19566e-05
5.01994e-05
9.8486e-05
4.01649e-05
4.55995e-05
4.5641e-05
2.37502e-05
2.36668e-05
1.91447e-05
1.69058e-05
1.49895e-05
1.35378e-05
1.24435e-05
1.16126e-05
1.10065e-05
1.05906e-05
1.03452e-05
1.02704e-05
1.0433e-05
1.08707e-05
1.1585e-05
1.24998e-05
1.3507e-05
1.4521e-05
1.54863e-05
1.63834e-05
1.72241e-05
1.80203e-05
1.87918e-05
1.95409e-05
2.02702e-05
2.09735e-05
2.16473e-05
2.2285e-05
2.28839e-05
2.3444e-05
2.39658e-05
2.44408e-05
2.48541e-05
2.51905e-05
2.54503e-05
2.56402e-05
2.574e-05
2.57278e-05
2.56355e-05
2.549e-05
2.52611e-05
2.4883e-05
2.44491e-05
2.39368e-05
2.32068e-05
2.21271e-05
2.10869e-05
1.99604e-05
1.87528e-05
1.75987e-05
1.63545e-05
1.5118e-05
1.40602e-05
1.28974e-05
1.15737e-05
1.03961e-05
9.21666e-06
8.06768e-06
7.32383e-06
6.59096e-06
6.36195e-06
6.35427e-06
2.99147e-05
3.01758e-05
3.03247e-05
3.04297e-05
3.05004e-05
3.05497e-05
3.05432e-05
3.05265e-05
3.05055e-05
3.05076e-05
3.04894e-05
3.03919e-05
3.03192e-05
3.02151e-05
3.01153e-05
3.00714e-05
3.00539e-05
3.00538e-05
3.00522e-05
3.00991e-05
3.00979e-05
3.01525e-05
3.03317e-05
3.04429e-05
3.0586e-05
3.07045e-05
3.08744e-05
3.09865e-05
3.1255e-05
3.14056e-05
3.16524e-05
3.19125e-05
3.23223e-05
3.28507e-05
3.34677e-05
3.44824e-05
2.1697e-05
3.52535e-05
1.79125e-05
1.7997e-05
1.57988e-05
1.42064e-05
1.29445e-05
1.19393e-05
1.11412e-05
1.05203e-05
1.00473e-05
9.72974e-06
9.5394e-06
9.48345e-06
9.56967e-06
9.81083e-06
1.02319e-05
1.08286e-05
1.15964e-05
1.25055e-05
1.35155e-05
1.45882e-05
1.56886e-05
1.67829e-05
1.78591e-05
1.88962e-05
1.9897e-05
2.08582e-05
2.17931e-05
2.27053e-05
2.35975e-05
2.44613e-05
2.52855e-05
2.6048e-05
2.6737e-05
2.73504e-05
2.7865e-05
2.82741e-05
2.85899e-05
2.88071e-05
2.8908e-05
2.88916e-05
2.87531e-05
2.8456e-05
2.80704e-05
2.76499e-05
2.71412e-05
2.64347e-05
2.5683e-05
2.48765e-05
2.39007e-05
2.2846e-05
2.1771e-05
2.05647e-05
1.91956e-05
1.77764e-05
1.60912e-05
1.4296e-05
1.24558e-05
1.05935e-05
8.87363e-06
7.74148e-06
6.60891e-06
6.03891e-06
6.65399e-06
6.67576e-06
6.68987e-06
6.70681e-06
6.71689e-06
6.72134e-06
6.72359e-06
6.72415e-06
6.72414e-06
6.72352e-06
6.72202e-06
6.71551e-06
6.70417e-06
6.68893e-06
6.67305e-06
6.66441e-06
6.66297e-06
6.66177e-06
6.66138e-06
6.66131e-06
6.66297e-06
6.66791e-06
6.67645e-06
6.69168e-06
6.71262e-06
6.74008e-06
6.76583e-06
6.78808e-06
6.8153e-06
6.85096e-06
6.89863e-06
6.96041e-06
7.03869e-06
7.13525e-06
7.25032e-06
7.39308e-06
7.57579e-06
7.80735e-06
8.08817e-06
8.42325e-06
8.83519e-06
9.31505e-06
9.77473e-06
9.49716e-06
9.21007e-06
8.96181e-06
8.77666e-06
8.67873e-06
8.64431e-06
8.66997e-06
8.75118e-06
8.896e-06
9.13066e-06
9.47009e-06
9.94606e-06
1.05734e-05
1.13498e-05
1.22668e-05
1.33025e-05
1.44292e-05
1.56015e-05
1.67421e-05
1.78055e-05
1.87952e-05
1.97683e-05
2.07556e-05
2.17741e-05
2.2832e-05
2.39421e-05
2.51136e-05
2.63089e-05
2.7424e-05
2.84285e-05
2.93467e-05
3.01699e-05
3.08642e-05
3.14036e-05
3.17735e-05
3.19503e-05
3.19158e-05
3.16742e-05
3.12259e-05
3.04809e-05
2.9599e-05
2.86669e-05
2.75497e-05
2.60962e-05
2.4558e-05
2.30457e-05
2.14021e-05
1.96206e-05
1.78412e-05
1.60859e-05
1.40852e-05
1.20989e-05
1.02181e-05
8.43045e-06
6.95206e-06
6.11011e-06
7.04662e-06
5.88871e-06
5.83397e-06
5.80663e-06
5.76637e-06
5.75011e-06
5.74425e-06
5.74307e-06
5.74371e-06
5.74484e-06
5.74661e-06
5.74835e-06
5.75284e-06
5.76121e-06
5.77313e-06
5.78834e-06
5.80665e-06
5.82391e-06
5.83522e-06
5.83908e-06
5.83949e-06
5.83888e-06
5.8338e-06
5.82175e-06
5.79999e-06
5.7699e-06
5.74334e-06
5.72998e-06
5.72609e-06
5.72293e-06
5.71888e-06
5.71209e-06
5.70417e-06
5.69614e-06
5.69001e-06
5.68526e-06
5.68217e-06
5.68467e-06
5.69211e-06
5.70675e-06
5.73293e-06
5.78222e-06
5.84791e-06
5.92551e-06
6.02146e-06
6.14615e-06
6.30853e-06
6.51528e-06
6.76683e-06
7.06376e-06
7.3975e-06
7.54596e-06
7.64657e-06
7.73065e-06
7.84432e-06
8.03807e-06
8.34806e-06
8.78287e-06
9.32593e-06
9.9415e-06
1.05806e-05
1.12187e-05
1.18647e-05
1.25663e-05
1.33573e-05
1.42383e-05
1.52015e-05
1.62553e-05
1.74258e-05
1.871e-05
2.00467e-05
2.13586e-05
2.25969e-05
2.37444e-05
2.48022e-05
2.57728e-05
2.6654e-05
2.74373e-05
2.81137e-05
2.8652e-05
2.90035e-05
2.91435e-05
2.90659e-05
2.87619e-05
2.81867e-05
2.73752e-05
2.64459e-05
2.53291e-05
2.38172e-05
2.19854e-05
1.9929e-05
1.76182e-05
1.50786e-05
1.26189e-05
1.05006e-05
8.7185e-06
7.09391e-06
5.66318e-06
4.65348e-06
4.11305e-06
4.57421e-06
5.91637e-06
5.91668e-06
5.91551e-06
5.91528e-06
5.91474e-06
5.91438e-06
5.91383e-06
5.91268e-06
5.91145e-06
5.90997e-06
5.90814e-06
5.90714e-06
5.90731e-06
5.90779e-06
5.90874e-06
5.90981e-06
5.91063e-06
5.9112e-06
5.91161e-06
5.91206e-06
5.91267e-06
5.91362e-06
5.91497e-06
5.91627e-06
5.91693e-06
5.91768e-06
5.91811e-06
5.91779e-06
5.91686e-06
5.91575e-06
5.91429e-06
5.91235e-06
5.90973e-06
5.90597e-06
5.90094e-06
5.89449e-06
5.88571e-06
5.87425e-06
5.85961e-06
5.84103e-06
5.81741e-06
5.7883e-06
5.75386e-06
5.71181e-06
5.6621e-06
5.60429e-06
5.53676e-06
5.45923e-06
5.37164e-06
5.27505e-06
5.16935e-06
5.05564e-06
4.93604e-06
4.811e-06
4.68163e-06
4.54945e-06
4.416e-06
4.28394e-06
4.15585e-06
4.0347e-06
3.92237e-06
3.8199e-06
3.72877e-06
3.65172e-06
3.59143e-06
3.55027e-06
3.52903e-06
3.52342e-06
3.53106e-06
3.55296e-06
3.58867e-06
3.65496e-06
3.76352e-06
3.89571e-06
4.05059e-06
4.2302e-06
4.43589e-06
4.66979e-06
4.93289e-06
5.22301e-06
5.539e-06
5.87587e-06
6.22433e-06
6.59804e-06
6.97947e-06
7.37757e-06
7.82025e-06
8.26439e-06
8.60232e-06
8.71622e-06
8.41986e-06
7.42823e-06
5.924e-06
4.28382e-06
2.73266e-06
1.74478e-06
1.54045e-06
2.6598e-06
2.85247e-06
3.09283e-06
7.68618e-06
7.26377e-07
8.97304e-07
1.19892e-06
1.54179e-06
1.85155e-06
2.14657e-06
2.45125e-06
2.73701e-06
3.01195e-06
3.28148e-06
3.56425e-06
3.87625e-06
4.1991e-06
4.48188e-06
4.63636e-06
5.04372e-06
6.40005e-06
7.04444e-06
3.53839e-06
3.48655e-06
9.4981e-07
9.3396e-07
1.11794e-06
1.37543e-06
1.63081e-06
1.92314e-06
2.21352e-06
2.5025e-06
2.80723e-06
3.07892e-06
3.37361e-06
3.69435e-06
4.07032e-06
4.34959e-06
4.60772e-06
5.12775e-06
6.60223e-06
7.05475e-06
3.60969e-06
3.18502e-06
1.38664e-06
1.40002e-06
1.40109e-06
1.56192e-06
1.78868e-06
2.03814e-06
2.324e-06
2.61946e-06
2.99071e-06
3.16029e-06
3.35516e-06
3.66754e-06
3.97286e-06
4.25665e-06
4.57213e-06
5.31931e-06
6.78599e-06
6.97907e-06
3.69834e-06
3.62052e-06
2.05155e-06
2.09383e-06
1.96199e-06
2.12452e-06
2.20813e-06
2.4694e-06
2.74325e-06
3.12813e-06
3.67134e-06
3.58413e-06
3.63927e-06
3.8175e-06
4.09586e-06
4.43962e-06
4.95805e-06
5.82972e-06
7.07932e-06
6.82599e-06
3.79555e-06
4.30264e-06
2.97501e-06
3.01804e-06
2.76831e-06
3.07835e-06
3.08592e-06
3.48646e-06
3.82646e-06
4.46457e-06
4.93323e-06
4.57984e-06
4.34796e-06
4.43542e-06
4.7638e-06
5.15015e-06
5.77258e-06
6.54822e-06
7.3549e-06
6.65566e-06
3.88223e-06
5.40577e-06
4.37581e-06
4.4107e-06
4.13781e-06
4.60079e-06
4.75329e-06
5.3676e-06
5.86699e-06
6.86708e-06
6.97088e-06
6.32233e-06
6.02573e-06
6.24249e-06
6.41448e-06
6.79846e-06
7.22544e-06
7.57053e-06
7.34514e-06
6.24356e-06
3.96387e-06
7.1279e-06
6.46985e-06
6.53002e-06
6.30068e-06
7.01887e-06
7.50253e-06
8.73397e-06
9.96106e-06
1.18945e-05
1.10814e-05
1.04069e-05
1.01588e-05
9.97595e-06
9.82509e-06
9.63951e-06
9.21731e-06
8.00749e-06
6.92871e-06
5.7053e-06
3.95732e-06
1.05319e-05
1.06276e-05
1.09304e-05
1.13394e-05
1.29019e-05
1.44882e-05
1.70839e-05
2.04295e-05
2.0092e-05
1.82868e-05
1.62685e-05
1.45555e-05
1.26765e-05
1.11825e-05
9.72604e-06
8.42811e-06
7.44287e-06
6.41897e-06
4.87044e-06
3.48572e-06
2.0185e-05
2.18166e-05
2.24148e-05
2.37055e-05
2.43488e-05
2.18991e-05
2.01117e-05
1.75397e-05
1.61919e-05
1.40832e-05
1.29742e-05
1.13535e-05
1.0466e-05
9.26482e-06
8.40696e-06
7.31479e-06
6.49983e-06
4.95642e-06
3.44927e-06
2.32971e-06
2.57716e-05
2.41645e-05
2.18536e-05
1.98514e-05
1.7745e-05
1.59661e-05
1.44166e-05
1.26614e-05
1.16719e-05
1.02701e-05
9.41181e-06
8.68271e-06
7.67122e-06
7.03803e-06
5.85363e-06
4.84913e-06
4.11476e-06
3.10238e-06
2.02907e-06
1.26584e-06
2.92617e-05
2.77475e-05
2.5597e-05
2.35549e-05
2.16018e-05
1.95092e-05
1.78578e-05
1.59342e-05
1.47443e-05
1.31478e-05
1.20579e-05
1.10285e-05
9.97297e-06
9.07527e-06
8.17608e-06
7.1112e-06
6.0413e-06
4.49137e-06
3.06664e-06
1.95463e-06
1.57299e-05
1.67859e-05
1.70576e-05
1.78471e-05
2.00247e-05
2.22425e-05
2.35155e-05
2.10052e-05
1.94007e-05
1.70192e-05
1.55701e-05
1.36435e-05
1.2372e-05
1.07686e-05
9.69239e-06
8.48213e-06
7.69644e-06
6.52533e-06
4.68103e-06
3.26649e-06
9.42034e-06
9.15069e-06
9.23383e-06
9.10232e-06
1.01085e-05
1.0952e-05
1.27237e-05
1.49471e-05
1.64022e-05
1.496e-05
1.42915e-05
1.36737e-05
1.31066e-05
1.216e-05
1.06101e-05
9.32393e-06
8.19861e-06
7.27742e-06
5.79628e-06
4.26234e-06
6.73102e-06
5.98333e-06
5.98619e-06
5.67316e-06
6.24388e-06
6.45395e-06
7.38009e-06
8.13984e-06
9.55557e-06
8.83693e-06
8.0032e-06
7.92713e-06
8.03219e-06
8.1664e-06
8.46985e-06
8.72327e-06
8.51195e-06
7.58937e-06
6.45542e-06
4.31592e-06
5.20381e-06
4.10653e-06
4.09808e-06
3.76974e-06
4.14707e-06
4.21878e-06
4.72053e-06
5.09683e-06
5.91316e-06
5.96052e-06
5.4292e-06
5.04552e-06
5.28004e-06
5.60454e-06
6.09768e-06
6.79377e-06
7.55e-06
7.91909e-06
6.9899e-06
4.24014e-06
4.2161e-06
2.85782e-06
2.87617e-06
2.59799e-06
2.8571e-06
2.81125e-06
3.13288e-06
3.39142e-06
3.90744e-06
4.32926e-06
4.08034e-06
3.96784e-06
4.06193e-06
4.37631e-06
4.83581e-06
5.53965e-06
6.52948e-06
7.6987e-06
7.28395e-06
4.14353e-06
3.57901e-06
1.96709e-06
1.99239e-06
1.86689e-06
2.01144e-06
2.09955e-06
2.31321e-06
2.57963e-06
2.88412e-06
3.34029e-06
3.30649e-06
3.4095e-06
3.64896e-06
3.92373e-06
4.23544e-06
4.75552e-06
5.8132e-06
7.3788e-06
7.40424e-06
4.03443e-06
3.30735e-06
1.34445e-06
1.33334e-06
1.34746e-06
1.4934e-06
1.71039e-06
1.94173e-06
2.21023e-06
2.48683e-06
2.81811e-06
3.00619e-06
3.21831e-06
3.52007e-06
3.85864e-06
4.16029e-06
4.47484e-06
5.27017e-06
6.96404e-06
7.53948e-06
3.92699e-06
3.85725e-06
9.34289e-07
9.15206e-07
1.10028e-06
1.36371e-06
1.62012e-06
1.89405e-06
2.17792e-06
2.46041e-06
2.75115e-06
3.02248e-06
3.32156e-06
3.62793e-06
3.9716e-06
4.26306e-06
4.53094e-06
5.13447e-06
6.79269e-06
7.5022e-06
3.83153e-06
8.55641e-06
7.26483e-07
8.86754e-07
1.17782e-06
1.50393e-06
1.8308e-06
2.11118e-06
2.38937e-06
2.66225e-06
2.92511e-06
3.18134e-06
3.45235e-06
3.76377e-06
4.07929e-06
4.39859e-06
4.56235e-06
4.97279e-06
6.50496e-06
7.49397e-06
3.75693e-06
1.23269e-06
0.000116682
0.00029464
0.000330945
0.000334814
0.000335357
0.000335357
0.000335342
0.000335343
0.000335345
0.000335345
0.000335343
0.000335342
0.000335357
0.000335357
0.000334814
0.000330945
0.00029464
0.000116683
1.23269e-06
1.37337e-06
6.80257e-05
0.00021916
0.000309313
0.000330874
0.000334522
0.000335272
0.000335315
0.000335295
0.000335286
0.000335286
0.000335295
0.000335314
0.000335271
0.000334522
0.000330874
0.000309312
0.00021916
6.80257e-05
1.37338e-06
1.51594e-06
5.26683e-05
0.000175848
0.000280152
0.000321949
0.000332483
0.0003346
0.000335098
0.000335167
0.000335173
0.000335173
0.000335167