/*--------------------------------*- C++ -*----------------------------------*\
| =========                 |                                                 |
| \\      /  F ield         | OpenFOAM: The Open Source CFD Toolbox           |
|  \\    /   O peration     | Version:  2.1.0                                 |
|   \\  /    A nd           | Web:      www.OpenFOAM.org                      |
|    \\/     M anipulation  |                                                 |
\*---------------------------------------------------------------------------*/
FoamFile
{
    version     2.0;
    format      ascii;
    class       volScalarField;
    location    "0.05";
    object      omega;
}
// * * * * * * * * * * * * * * * * * * * * * * * * * * * * * * * * * * * * * //

dimensions      [0 0 -1 0 0 0 0];

internalField   nonuniform List<scalar> 
6400
(
1665.51
1665.51
1665.5
1665.54
1665.62
1665.75
1665.94
1666.15
1666.34
1666.55
1666.81
1667.03
1667.1
1667.09
1667.01
1666.85
1666.62
1666.36
1666.09
1665.84
1665.6
1665.35
1665.18
1665.1
1665.01
1664.86
1664.79
1664.75
1664.67
1664.46
1664.05
1663.41
1662.53
1661.31
1659.71
1657.69
1655.09
1651.68
1647.36
1642.18
1636.07
1628.84
1620.27
1610.32
1598.88
1585.69
1570.72
1553.79
1534.86
1514
1491.35
1467.04
1441.22
1414.07
1385.78
1356.56
1326.72
1296.65
1266.82
1237.74
1209.61
1182.72
1157.38
1133.99
1112.98
1094.52
1078.67
1064.68
1052.2
1041.27
1032.34
1025.87
1022.85
1022.25
1022.62
1023.85
1025.82
1028.3
1030.94
1032.74
1033.11
1032.66
1030.66
1025.9
1018.8
1010.95
1001.22
986.319
964.758
935.6
896.276
842.506
768.179
672.251
555.785
470.47
477.01
613.507
735.155
770.684
716.447
715.903
715.846
715.967
716.289
716.614
716.828
716.905
716.926
716.912
716.773
716.449
715.988
715.455
715.044
714.788
714.564
714.373
714.236
714.091
713.954
713.901
713.88
713.867
713.804
713.622
713.462
713.277
712.845
712.027
710.72
709.056
707.041
704.535
701.54
698.023
693.778
688.615
682.548
675.948
668.703
660.701
651.949
642.815
633.116
622.397
610.666
597.947
584.721
571.503
558.754
547.069
536.561
527.29
519.653
513.668
509.104
507.153
507.084
513.244
529.597
553.046
578.985
604.871
630.448
656.012
682.015
708.897
736.541
764.71
793.348
822.453
852.112
882.477
913.712
945.951
978.002
1009.79
1041.89
1074.47
1107.92
1141.61
1175.79
1210.28
1244.88
1279.41
1313.02
1344.72
1374.03
1400.02
1420.9
1431.32
1434.55
1424.17
1386.05
1297.81
1171.85
1020.42
859.334
701.497
174.859
174.675
174.922
175.542
176.094
176.329
176.395
176.394
176.315
176.072
175.602
174.946
174.224
173.527
173.233
173.106
173.05
173.033
173.028
173.02
173.017
173.077
173.199
173.246
173.251
173.224
173.193
173.1
172.826
172.266
171.38
170.307
169.089
167.709
166.283
164.876
163.403
161.838
159.92
158.285
156.506
154.547
152.404
151.023
150.73
150.975
152.766
157.142
164.678
175.628
190.056
208.322
231.29
257.911
285.638
312.878
339.259
365.042
390.661
416.658
443.396
470.818
498.728
527.087
556.054
585.768
615.896
646.068
676.495
707.136
737.64
767.889
797.99
827.97
857.771
887.349
916.704
945.825
974.707
1003.32
1031.64
1059.69
1087.72
1115.53
1142.73
1169.03
1194.53
1218.64
1240.04
1257.85
1267.71
1271.3
1265.38
1235.57
1184.4
1097.87
981.737
834.863
676.164
535.125
34.7725
34.7718
34.92
35.076
35.1334
35.1971
35.2312
35.2284
35.1902
35.1083
34.9803
34.8026
34.6268
34.4635
34.4582
34.4242
34.3664
34.3746
34.3815
34.3878
34.3494
34.3766
34.3941
34.3932
34.3688
34.3577
34.3644
34.3388
34.2295
34.0423
33.8037
33.6283
33.4634
33.2567
32.8876
32.2547
31.416
31.0608
31.0398
31.3197
32.0792
33.4099
35.5162
38.9478
44.6811
53.7675
66.7573
83.528
103.801
127.18
152.965
180.278
208.443
236.914
265.213
292.667
318.96
344.209
368.788
393.024
417.262
441.825
466.941
492.631
518.765
545.123
571.539
597.894
624.108
650.103
675.795
701.086
725.91
750.221
773.924
796.86
818.882
839.902
859.826
878.428
895.47
910.799
924.176
935.105
943.209
947.148
948.63
948.013
939.959
928.528
910.959
886.508
854.968
813.756
762.217
697.67
625.574
548.743
481.125
443.2
12.5043
12.4911
12.5599
12.5799
12.5833
12.5864
12.5873
12.5673
12.5651
12.5765
12.5348
12.4834
12.405
12.3742
12.3396
12.3347
12.3448
12.3346
12.3459
12.3376
12.3714
12.3352
12.3279
12.3499
12.3641
12.329
12.3219
12.3082
12.2929
12.2727
12.1592
12.0208
11.8091
11.4111
10.9324
10.5154
9.91304
9.73642
9.74765
10.0673
11.0939
13.2131
16.7571
22.206
30.0219
40.8277
54.9725
72.7502
94.0656
118.215
144.259
171.223
198.286
224.586
249.439
272.354
293.367
312.839
331.589
350.385
369.88
390.168
411.028
431.999
452.74
473.098
493.073
512.756
532.06
550.818
568.809
585.886
601.935
616.903
630.675
643.051
653.808
662.861
670.146
675.478
678.033
678.952
678.836
675.138
669.254
661.954
651.745
640.037
626.278
610.565
593.39
573.891
552.393
528.423
501.386
472.605
443.035
416.917
401.787
394.851
6.22183
6.20948
6.19856
6.187
6.20948
6.22184
6.20224
6.21681
6.22318
6.19856
6.17064
6.14756
6.14403
6.14792
6.0996
6.08698
6.09302
6.06157
6.05001
6.05068
6.08823
6.11511
6.11494
6.12026
6.11732
6.14337
6.1281
6.12692
6.12719
6.08171
6.02318
5.91338
5.76805
5.57731
5.33672
5.11532
5.06962
5.07696
5.27398
5.78428
6.93397
9.05673
12.497
17.7226
25.2592
35.7321
49.5197
66.9146
87.69
111.112
136.24
161.824
186.582
209.245
229.026
245.756
260.061
272.958
285.637
298.833
312.793
327.088
341.198
354.691
367.528
379.889
391.899
403.52
414.489
424.584
433.701
441.918
449.288
455.657
460.932
465.132
468.221
469.784
470.437
470.557
469.57
466.932
464.04
460.543
455.831
450.939
445.636
439.531
433.242
426.78
419.6
412.151
404.324
396.102
387.762
379.59
373.036
370.058
369.45
369.826
3.93667
3.93674
3.93617
3.94006
3.94487
3.93995
3.95361
3.95569
3.96746
3.95693
3.94083
3.9313
3.92289
3.89836
3.88175
3.85648
3.85885
3.8631
3.85506
3.8754
3.89226
3.90218
3.90406
3.89285
3.89881
3.90371
3.89561
3.86729
3.84265
3.81766
3.81166
3.74092
3.65261
3.5913
3.55477
3.53322
3.58239
3.70701
4.02077
4.59067
5.66956
7.5974
10.7748
15.6342
22.7773
32.8157
46.1718
63.0802
83.2271
105.815
129.677
153.211
174.82
193.172
207.682
218.691
227.38
235.189
243.253
251.912
260.81
269.276
276.931
283.801
290.262
296.591
302.754
308.516
313.733
318.504
322.96
327.062
330.702
333.871
336.561
338.911
340.936
342.572
343.884
344.968
345.824
346.466
346.969
347.295
347.45
347.51
347.523
347.503
347.42
347.257
347.049
346.864
346.761
346.731
347.184
348.179
350.325
354.156
356.857
357.425
3.21163
3.22611
3.22352
3.22634
3.22613
3.21264
3.2211
3.23152
3.25458
3.2738
3.25988
3.2529
3.25009
3.21149
3.20307
3.18396
3.17395
3.17937
3.17996
3.19864
3.20872
3.21279
3.22718
3.21726
3.20199
3.19674
3.17551
3.14729
3.11944
3.09486
3.07302
3.00564
2.93843
2.92361
2.9213
2.92891
2.99733
3.13099
3.45364
4.04461
5.09882
6.92257
9.9709
14.6855
21.6618
31.5185
44.7095
61.3857
81.1696
103.104
125.757
147.322
166.086
180.878
191.501
198.773
204.205
209.302
214.948
221.139
227.276
232.727
237.359
241.537
245.695
249.933
254.055
257.871
261.434
264.934
268.435
271.856
275.118
278.282
281.424
284.552
287.627
290.627
293.599
296.581
299.55
302.485
305.408
308.409
311.421
314.455
317.509
320.606
323.733
326.878
330.11
333.432
336.903
340.579
344.614
349.199
354.227
359.869
362.582
362.977
3.00696
3.00587
3.02894
3.03243
3.03268
3.04234
3.01841
3.00176
3.01236
3.01278
3.03032
3.02352
3.02989
3.03345
3.04559
3.03243
3.02552
3.03576
3.02512
3.03347
3.04471
3.0464
3.03222
3.03423
3.01851
2.98146
2.97787
2.92299
2.88918
2.88079
2.82569
2.74368
2.6854
2.6347
2.62501
2.63138
2.68336
2.83256
3.13713
3.72499
4.7945
6.62581
9.64001
14.3225
21.2736
31.0957
44.2609
60.8611
80.4429
101.982
123.881
144.224
161.261
173.965
182.417
187.745
191.657
195.657
200.443
205.778
210.946
215.433
219.304
223.039
227.018
231.223
235.388
239.377
243.322
247.413
251.657
255.935
260.192
264.511
268.966
273.531
278.145
282.84
287.659
292.602
297.638
302.753
307.981
313.314
318.737
324.24
329.839
335.52
341.259
347.056
352.924
358.869
364.892
371.017
377.324
384.007
391.513
399.409
405.521
408.194
2.94776
2.94385
2.93995
2.97065
2.98687
2.98757
2.99326
2.99958
3.00374
2.99672
2.95536
2.9715
2.97082
2.9773
2.97189
2.97598
2.98103
2.97798
2.99174
3.00039
3.04154
3.05042
3.04725
2.99498
2.97096
2.94524
2.89881
2.8539
2.83622
2.79929
2.753
2.67203
2.59826
2.53228
2.51916
2.52752
2.57965
2.72017
3.02282
3.61623
4.68404
6.52556
9.54463
14.2281
21.1828
31.0128
44.1772
60.7335
80.2209
101.57
123.114
142.876
159.11
170.87
178.375
182.909
186.263
189.936
194.53
199.707
204.716
209.09
212.973
216.871
221.114
225.618
230.098
234.448
238.826
243.415
248.202
253.061
257.964
263.009
268.267
273.701
279.274
285.013
290.977
297.178
303.584
310.218
317.132
324.338
331.833
339.64
347.794
356.324
365.241
374.583
384.401
394.743
405.677
417.273
429.628
442.784
456.61
470.813
481.1
485.522
2.93562
2.94761
2.95806
2.96284
2.97773
2.98313
2.98325
2.97178
2.9639
2.96058
2.96069
2.95247
2.96706
2.98395
2.99756
2.99313
2.98352
2.99286
2.97828
3.02118
3.04878
3.06141
3.03073
2.99412
2.97126
2.96128
2.91894
2.86861
2.83417
2.8061
2.74787
2.6918
2.59519
2.53667
2.52968
2.5356
2.58278
2.72742
3.04379
3.64446
4.7265
6.57324
9.5838
14.2638
21.2049
31.0185
44.1611
60.6952
80.1667
101.52
123.109
142.965
159.338
171.258
178.906
183.536
186.921
190.57
195.116
200.247
205.218
209.549
213.372
217.185
221.332
225.743
230.129
234.378
238.638
243.097
247.742
252.448
257.177
262.023
267.06
272.242
277.514
282.909
288.482
294.227
300.112
306.136
312.341
318.729
325.279
332.002
338.927
346.069
353.436
361.065
369.016
377.324
386.015
395.233
405.066
415.671
427.11
439.043
448.081
452.052
3.00746
3.01411
3.01108
3.02165
3.03958
3.04532
3.04465
3.03921
3.01772
3.00232
3.01356
3.02546
3.03141
3.03597
3.03159
3.03823
3.02656
3.02286
3.00944
3.0155
3.02718
3.03756
3.05261
3.05458
3.03724
3.00264
2.97296
2.92831
2.89628
2.88502
2.86528
2.78782
2.71993
2.68223
2.67971
2.69068
2.75693
2.91986
3.24043
3.84062
4.91258
6.74864
9.75851
14.4162
21.335
31.1068
44.205
60.7192
80.2299
101.724
123.66
144.135
161.406
174.399
183.117
188.64
192.631
196.611
201.332
206.605
211.738
216.188
219.986
223.591
227.4
231.426
235.397
239.161
242.826
246.585
250.461
254.328
258.113
261.881
265.712
269.625
273.525
277.417
281.371
285.359
289.358
293.352
297.356
301.398
305.445
309.496
313.595
317.72
321.872
326.089
330.41
334.881
339.527
344.393
349.571
355.249
361.554
368.271
371.784
372.889
3.20912
3.20175
3.2015
3.1999
3.20518
3.20511
3.21752
3.22694
3.23201
3.2229
3.22156
3.23452
3.23961
3.24535
3.22976
3.21377
3.20911
3.20963
3.21126
3.21282
3.21898
3.2158
3.2207
3.19925
3.17998
3.17236
3.14807
3.13468
3.13019
3.13907
3.09136
3.00722
2.97303
2.96745
2.96778
2.99796
3.09327
3.29963
3.59407
4.198
5.28164
7.12998
10.1477
14.8474
21.794
31.5514
44.6329
61.1585
80.7906
102.61
125.231
146.921
165.954
181.136
192.141
199.729
205.323
210.44
216.046
222.211
228.389
233.955
238.704
242.943
247.125
251.401
255.569
259.424
262.982
266.431
269.869
273.223
276.404
279.451
282.463
285.406
288.25
290.991
293.652
296.275
298.829
301.286
303.679
306.032
308.327
310.552
312.746
314.968
317.24
319.567
322.013
324.607
327.398
330.475
333.855
337.72
342.4
347.395
349.744
349.833
3.95919
3.95525
3.93159
3.90615
3.89996
3.89348
3.91257
3.91963
3.91928
3.9357
3.94242
3.92332
3.92475
3.92981
3.94004
3.93189
3.94074
3.9381
3.93398
3.91557
3.91734
3.90585
3.8939
3.88968
3.88908
3.88077
3.85491
3.84317
3.81444
3.80796
3.77928
3.73891
3.66171
3.61507
3.60946
3.65252
3.69429
3.88637
4.15073
4.75476
5.87891
7.82763
10.9959
15.8752
22.9609
32.8601
46.0743
62.771
82.6791
105.041
128.729
152.296
174.085
192.829
207.746
219.148
228.1
236.002
244.08
252.773
261.824
270.573
278.572
285.805
292.585
299.219
305.721
311.864
317.444
322.524
327.239
331.627
335.615
339.147
342.199
344.85
347.136
349.088
350.629
351.877
352.916
353.659
354.105
354.304
354.368
354.328
353.965
353.34
352.582
351.533
350.171
348.686
346.951
345.147
343.789
343.112
342.998
346.083
348.073
348.425
6.25204
6.21107
6.20544
6.16194
6.15386
6.15186
6.14431
6.1412
6.12682
6.13583
6.13812
6.14396
6.16484
6.19303
6.22056
6.21002
6.2218
6.20441
6.2026
6.21027
6.18518
6.18126
6.16853
6.14374
6.13992
6.11189
6.10246
6.05082
6.02418
5.92214
5.86527
5.84448
5.7185
5.53019
5.33034
5.2318
5.17076
5.21272
5.39143
5.91546
7.12161
9.26582
12.7255
17.9339
25.4238
35.7072
49.3452
66.4416
86.8779
109.953
134.732
160.115
184.792
207.644
227.64
244.644
259.173
272.126
284.749
297.849
311.75
326.156
340.535
354.429
367.706
380.502
392.96
405.099
416.69
427.53
437.467
446.495
454.669
461.985
468.348
473.649
478.019
481.422
483.645
484.662
485.018
484.939
483.382
480.797
478.005
473.995
468.949
463.496
456.91
449.389
441.072
431.415
420.527
408.775
396.662
384.114
373.633
367.288
364.631
363.49
12.6079
12.529
12.485
12.498
12.451
12.4652
12.431
12.4287
12.4507
12.4551
12.4704
12.4574
12.4794
12.5229
12.5558
12.5842
12.5489
12.5519
12.5463
12.565
12.5172
12.4865
12.4967
12.4651
12.3236
12.2662
12.2291
12.1762
12.1935
12.1127
11.9961
11.7398
11.6012
11.3776
10.9592
10.4164
9.93411
9.74334
9.74874
10.0323
11.073
13.178
16.7232
22.0887
29.816
40.3551
54.2551
71.6397
92.5055
116.241
141.834
168.402
195.099
221.231
245.973
268.847
289.841
309.234
327.781
346.298
365.435
385.426
406.118
427.073
447.927
468.465
488.668
508.634
528.347
547.687
566.452
584.479
601.673
617.966
633.296
647.554
660.546
672.123
682.227
690.751
697.574
702.512
704.837
705.674
705.448
701.305
695.133
686.741
674.791
660.584
642.869
621.654
596.223
566.192
532.881
496.343
458.956
425.655
402.993
391.748
35.2807
34.9596
34.7726
34.6436
34.5495
34.4891
34.4955
34.5142
34.5375
34.529
34.5451
34.6545
34.7378
34.858
34.9774
35.0484
35.0811
35.0842
35.0851
35.0243
35.0238
34.9501
34.7357
34.607
34.4438
34.3124
34.127
34.0192
33.7469
33.6362
33.4538
33.2892
33.0371
32.7353
32.468
31.8877
31.0184
30.3779
30.2947
30.4476
31.0968
32.3588
34.4848
37.9631
43.6925
52.6299
65.1702
81.4026
101.101
123.943
149.204
176.033
203.679
231.623
259.452
286.594
312.617
337.569
361.774
385.587
409.347
433.361
457.928
483.095
508.784
534.776
560.896
587.033
613.108
639.057
664.825
690.325
715.485
740.277
764.678
788.614
811.954
834.602
856.502
877.581
897.646
916.528
934.055
950
963.915
975.261
983.376
987.255
988.498
984.742
971.98
953.54
922.642
880.28
823.775
753.021
668.306
578.269
500.414
446.914
177.321
175.947
175.225
174.231
173.75
173.529
173.44
173.414
173.416
173.431
173.477
173.699
174.072
174.634
175.304
175.849
176.087
176.198
176.236
176.232
176.169
175.938
175.494
174.827
173.96
173.117
172.429
171.893
171.246
170.528
169.609
168.526
167.265
165.916
164.664
163.343
161.88
160.169
158.542
156.922
155.085
153.039
150.96
149.149
148.695
148.808
150.251
154.154
161.162
171.552
185.389
202.964
225.152
251.162
278.456
305.283
331.201
356.478
381.515
406.793
432.731
459.351
486.48
514.035
542.136
570.946
600.386
629.943
659.673
689.743
719.899
749.882
779.7
809.476
839.24
868.95
898.591
928.195
957.764
987.329
1016.92
1046.56
1076.23
1106.22
1136.54
1166.64
1196.04
1224.71
1252.13
1276.29
1292.67
1299.58
1299.87
1270.36
1215.62
1132.32
1019.29
880.828
718.201
560.935
718.16
717.138
716.692
716.106
715.744
715.353
715.049
714.851
714.691
714.484
714.396
714.401
714.56
714.967
715.555
715.984
716.168
716.294
716.447
716.565
716.587
716.547
716.399
716.041
715.361
714.561
713.841
713.097
712.083
710.827
709.269
707.406
705.148
702.491
699.49
695.967
691.63
686.413
680.52
674.004
666.71
658.678
649.987
640.576
630.684
619.965
608.03
595.162
581.712
568.213
555.094
542.964
532.079
522.305
514.121
507.582
502.241
499.208
498.496
502.19
515.732
537.396
562.55
587.909
612.755
637.527
662.539
688.293
714.869
741.991
769.528
797.48
825.91
854.909
884.573
915.021
946.352
977.832
1009.26
1041.41
1074.21
1108.06
1142.49
1177.87
1213.87
1250.15
1286.09
1319.98
1349.79
1370.93
1379.88
1381.31
1371.89
1352.36
1318.15
1252.31
1153.47
1027.05
889.902
735.732
1665.51
1666.1
1666.33
1666.51
1666.55
1666.56
1666.48
1666.28
1666.07
1665.8
1665.46
1665.22
1665.16
1665.16
1665.27
1665.45
1665.6
1665.72
1665.83
1665.95
1666.1
1666.3
1666.53
1666.73
1666.8
1666.79
1666.68
1666.44
1666.05
1665.5
1664.76
1663.82
1662.65
1661.15
1659.31
1657.08
1654.28
1650.75
1646.43
1641.26
1635.08
1627.76
1619.3
1609.34
1597.83
1584.67
1569.62
1552.58
1533.53
1512.59
1489.75
1465.14
1439.08
1411.66
1383.06
1353.53
1323.33
1292.88
1262.6
1232.98
1204.36
1176.94
1150.98
1126.88
1105.05
1085.81
1069.25
1054.77
1041.89
1030.66
1020.9
1014.37
1012.54
1012.69
1014.27
1017.21
1021.3
1026.36
1032.05
1037.73
1042.81
1046.51
1047.61
1046.84
1042.54
1034.9
1025.28
1010.8
986.017
947.044
889.263
806.025
709.207
614.158
525.967
469.432
472.876
616.243
759.159
801.895
724.041
285.885
158.528
108.475
85.9398
70.031
59.1186
54.0352
47.627
43.5843
41.8859
41.3128
41.3797
46.0127
57.2213
84.0805
141.732
255.75
465.213
727.244
592.06
295.656
195.35
139.546
107.112
86.1082
74.5772
65.0939
57.561
53.8222
52.2587
51.854
52.7614
58.5258
73.5689
104.707
166.807
281.266
476.82
706.04
483.745
288.956
219.186
160.654
128.415
106.698
90.6418
79.82
71.4454
67.5417
65.8483
65.4657
67.6219
76.6816
94.3756
130.345
197.029
308.531
486.284
681.695
408.747
280.393
233.945
176.653
150.134
123.1
107.82
95.204
87.7127
84.2217
82.8925
82.8497
87.1473
98.1046
121.473
162.335
231.044
336.471
492.983
653.701
358.355
273.049
239.78
189.774
167.816
141.319
128.896
116.031
109.939
106.111
104.675
104.521
111.585
129.26
156.072
201.12
268.59
362.128
491.355
620.859
330.415
272.961
247.993
207.17
189.143
165.221
154.3
141.71
136.132
132.972
132.101
136.482
151.349
170.665
202.003
246.252
305.929
382.019
484.261
583.597
317.367
277.986
259.677
226.549
212.203
193.452
185.071
177.068
174.179
173.415
177.97
188.929
204.271
225.931
255.188
292.917
338.839
394.704
467.652
538.615
326.161
301.806
290.206
268.15
258.952
247.112
241.981
239.155
238.53
241.909
249.088
258.788
272.418
288.849
309.462
333.093
360.353
390.948
437.396
486.719
387.782
374.915
367.562
351.411
343.81
333.608
328.903
325.012
323.575
323.316
325.706
329.079
334.122
339.88
346.838
354.569
362.364
374.264
385.415
425.42
466.195
449.25
441.26
422.59
413.994
400.196
393.517
383.572
378.741
372.209
369.03
365.028
363.06
360.451
358.508
355.951
351.199
343.954
341.008
374.148
433.6
417.297
409.238
390.971
382.603
370.197
364.342
357.143
353.754
351.501
350.748
350.776
353.384
355.69
359.383
363.234
367.771
370.613
371.876
406.816
343.922
329.808
320.066
302.964
295.109
284.609
279.952
277.291
276.587
279.192
285.833
293.538
305.802
319.691
336.974
355.872
376.14
401.815
434.304
474.754
310.66
282.835
269.449
242.85
231.409
216.416
209.777
204.65
203.167
203.833
212.047
223.488
239.834
261.63
290.313
324.88
365.52
411.108
475.036
534.121
308.245
267.808
248.937
215.19
200.207
179.163
169.62
159.205
155.054
153.407
153.706
164.194
180.598
203.23
236.701
281.95
339.031
409.749
500.946
585.638
322.946
264.134
238.62
197.075
178.802
154.677
143.609
130.808
125.044
121.412
120.253
121.088
134.337
154.652
186.525
235.848
304.552
393.803
513.692
628.523
352.516
266.896
233.36
183.019
160.757
133.567
120.638
107.381
100.904
97.5203
96.297
96.4754
102.24
117.98
146.019
192.642
266.442
371.651
518.172
666.017
402.45
272.973
226.611
170.654
144.269
118.48
102.281
90.5672
81.8753
77.97
76.3979
76.2213
80.2826
91.5579
113.792
156.456
229.964
345.146
518.108
698.22
485.546
282.35
211.822
155.9
123.175
101.798
86.0187
75.4232
67.198
63.1531
61.3847
60.9124
62.3975
70.79
89.4859
125.865
196.428
317.246
510.139
726.088
610.838
289.867
189.179
134.349
104.333
83.5394
71.2565
62.4689
55.0923
50.8555
49.1561
48.6679
49.2395
54.838
69.2745
101.588
167.03
289.741
499.911
750.405
755.996
283.985
154.387
104.325
81.6159
67.6536
56.2229
50.5342
45.4158
41.277
39.5772
38.988
39.0742
43.2277
55.0195
81.9479
142.448
264.612
488.384
771.626
645.761
32.1394
12.7165
11.3216
11.1899
11.171
11.1705
11.1708
11.1707
11.1705
11.1705
11.1707
11.1708
11.1705
11.171
11.1899
11.3216
12.7165
32.1392
645.76
673.454
55.1849
17.0725
12.0947
11.3052
11.1805
11.1547
11.1529
11.1534
11.1536
11.1536
11.1533
11.1529
11.1547
11.1805
11.3052
12.0947
17.0726
55.1849
673.455
698.876
71.4027
21.2262
13.3229
11.5941
11.2266
11.1551
11.1382
11.1357
11.1354
11.1354
11.1357
11.1382
11.1551
11.2266
11.594
13.3226
21.2255
71.4002
698.875
721.719
84.9949
24.9713
14.5986
12.0265
11.3326
11.1676
11.1263
11.1182
11.1171
11.1171
11.1182
11.1263
11.1676
11.3326
12.0266
14.5988
24.9714
84.9932
721.72
745.913
101.241
29.0663
16.0234
12.5731
11.5179
11.2053
11.1271
11.1048
11.1002
11.1002
11.1048
11.127
11.2053
11.5178
12.573
16.0232
29.0654
101.236
745.912
770.928
119.537
33.5844
17.6015
13.2205
11.7722
11.2854
11.1369
11.0944
11.0841
11.0841
11.0944
11.1368
11.2853
11.7719
13.22
17.6004
33.5815
119.527
770.929
792.388
136.226
37.8522
19.1373
13.884
12.0577
11.393
11.162
11.0917
11.0714
11.0713
11.0916
11.162
11.393
12.0579
13.8842
19.1374
37.8513
136.221
792.392
809.873
150.38
41.6152
20.5406
14.5188
12.3499
11.5145
11.2016
11.0947
11.0617
11.0617
11.0946
11.2016
11.5145
12.3499
14.5186
20.54
41.6115
150.36
809.875
827.486
164.762
45.4169
21.9594
15.1744
12.6659
11.656
11.2537
11.1041
11.0573
11.0573
11.104
11.2533
11.6556
12.6652
15.1728
21.9553
45.4046
164.723
827.493
847.342
181.237
49.7362
23.5433
15.9069
13.0291
11.8288
11.3248
11.1244
11.0593
11.0593
11.1244
11.3248
11.8287
13.0285
15.905
23.5372
49.7154
181.169
847.354
866.666
198.019
54.2738
25.2226
16.6943
13.4323
12.0324
11.4179
11.1592
11.0672
11.0671
11.1588
11.4173
12.0317
13.4315
16.6928
25.2172
54.25
197.928
866.687
881.797
212.025
58.3134
26.7866
17.454
13.8347
12.2444
11.5217
11.2039
11.0852
11.085
11.2035
11.5215
12.2443
13.834
17.4507
26.7754
58.2748
211.909
881.833
892.621
222.361
61.4907
28.0877
18.1099
14.1928
12.4395
11.6214
11.2504
11.1086
11.1085
11.2505
11.6214
12.4393
14.1923
18.1073
28.0741
61.4398
222.245
892.686
902.405
231.195
64.1538
29.1815
18.6661
14.5001
12.6089
11.7111
11.2964
11.1349
11.134
11.294
11.7087
12.6067
14.497
18.6587
29.1605
64.0942
231.105
902.503
914.236
241.473
66.9666
30.2662
19.2107
14.8011
12.782
11.8086
11.3494
11.1694
11.1699
11.3492
11.8043
12.7773
14.7992
19.2069
30.258
66.9394
241.461
914.362
928.152
254.139
70.3764
31.5667
19.8704
15.1945
13.0253
11.96
11.4461
11.2343
11.2347
11.4463
11.9707
13.0377
15.2
19.8828
31.5855
70.4033
254.218
928.291
941.326
267.278
74.3159
33.18
20.7222
15.7246
13.4111
12.2217
11.6074
11.3612
11.3711
11.6319
12.2296
13.408
15.7636
20.7683
33.2283
74.3691
267.373
941.472
950.532
277.695
78.1519
34.9386
21.7478
16.3932
13.8361
12.4962
11.8275
11.5585
11.5633
11.8399
12.525
13.871
16.4209
21.7983
35.0195
78.2494
277.84
950.672
954.615
283.985
81.1564
36.4571
22.7032
16.9943
14.1551
12.7149
12.0166
11.7314
11.7313
12.0103
12.7206
14.1936
17.0433
22.7729
36.5836
81.308
284.102
954.728
955.234
287.499
82.9976
37.3955
23.2706
17.3396
14.3348
12.8116
12.0886
11.7932
11.7923
12.0805
12.8036
14.3219
17.3622
23.4093
37.5856
83.1966
287.676
955.326
954.736
290.432
83.7423
37.7114
23.482
17.3923
14.3372
12.8136
12.0861
11.7878
11.7856
12.0752
12.7989
14.3193
17.4031
23.6134
37.949
83.9614
290.634
954.814
952.213
293.362
83.7783
37.6822
23.4201
17.3002
14.2402
12.7092
11.9751
11.6772
11.6717
11.9553
12.677
14.2072
17.3058
23.5392
37.9334
84.003
293.527
952.262
943.257
295.469
83.2283
37.2191
22.9626
16.8059
13.7599
12.2662
11.5519
11.2641
11.2496
11.5106
12.2026
13.6883
16.7656
23.0647
37.477
83.4557
295.591
943.252
925.884
296.056
80.6691
35.3073
21.2024
15.074
12.2125
10.8476
10.2073
9.9627
9.92969
10.122
10.7125
12.0639
14.961
21.199
35.533
80.8915
296.154
925.808
910.459
295.707
74.0684
30.9444
17.6983
12.2433
9.72729
8.55569
8.04633
7.85349
7.82329
7.9543
8.43211
9.58228
12.0974
17.6349
31.0945
74.2771
295.79
910.326
898.473
293.802
67.4924
26.8225
14.6668
9.72788
7.54744
6.53684
6.139
5.98035
5.94165
6.03639
6.42192
7.41048
9.59132
14.5788
26.8649
67.6713
293.849
898.313
889.873
291.338
62.3294
23.4882
12.2792
7.89815
5.88403
4.96056
4.62045
4.50501
4.46443
4.54098
4.86041
5.72325
7.73179
12.2406
23.5294
62.382
291.256
889.707
884.027
289.368
58.4124
21.2356
10.6168
6.52383
4.72438
3.91014
3.56174
3.4547
3.43903
3.50435
3.79644
4.56643
6.41224
10.5905
21.2411
58.4274
289.197
883.862
880.186
287.714
55.8221
19.6942
9.67345
5.66006
3.94599
3.20598
2.91752
2.81694
2.79759
2.88874
3.17416
3.89561
5.61323
9.62241
19.6962
55.9117
287.603
880.023
877.693
286.446
54.6592
18.9012
9.10589
5.20548
3.53745
2.81564
2.54647
2.45956
2.44562
2.5286
2.79776
3.51361
5.16741
9.00215
18.8984
54.8135
286.409
877.528
876.044
285.636
54.4939
18.5864
8.80995
4.93933
3.29171
2.61202
2.33445
2.24043
2.25762
2.31633
2.57527
3.24891
4.88834
8.73651
18.4996
54.3984
285.515
875.881
874.909
285.093
54.5369
18.4899
8.66336
4.81292
3.16434
2.4928
2.243
2.13993
2.1403
2.22366
2.49232
3.13165
4.72434
8.55374
18.3617
54.2527
284.812
874.782
874.089
284.696
54.6165
18.4221
8.62129
4.77772
3.11041
2.43443
2.16949
2.08082
2.08928
2.19121
2.43836
3.09556
4.70224
8.46594
18.26
54.2656
284.323
874.041
873.474
284.404
54.6619
18.4138
8.6039
4.73815
3.09824
2.42411
2.14915
2.05048
2.04987
2.14328
2.40465
3.05888
4.68013
8.48906
18.2133
54.3088
284.07
873.515
873.019
284.154
54.6751
18.364
8.59524
4.75009
3.10207
2.42893
2.14897
2.04448
2.02806
2.12664
2.39263
3.03229
4.64824
8.51088
18.2519
54.4125
284.008
873.102
872.682
283.891
54.6387
18.3473
8.58264
4.73876
3.10067
2.4263
2.16013
2.05576
2.02421
2.12842
2.37399
3.0184
4.64474
8.53624
18.2856
54.4997
283.969
872.757
872.441
283.638
54.4998
18.3075
8.57417
4.73826
3.08847
2.4173
2.1591
2.05713
2.03971
2.13603
2.36918
3.02113
4.68634
8.55596
18.28
54.5062
283.864
872.47
872.273
283.432
54.3223
18.2817
8.57375
4.71277
3.07775
2.42112
2.17235
2.05351
2.0835
2.13118
2.38152
3.03489
4.68822
8.51536
18.2863
54.4583
283.621
872.23
872.124
283.317
54.2443
18.2599
8.54664
4.71411
3.08394
2.40131
2.15663
2.05717
2.06625
2.13523
2.39249
3.05059
4.68646
8.48715
18.2677
54.2831
283.365
872.061
871.998
283.301
54.2311
18.2439
8.56665
4.69242
3.06989
2.39637
2.13136
2.04133
2.0413
2.13626
2.38225
3.06407
4.71172
8.4672
18.1517
54.0595
283.075
871.93
871.872
283.32
54.2707
18.2556
8.54871
4.69783
3.06355
2.38305
2.11239
2.02126
2.02174
2.10742
2.377
3.06711
4.70213
8.47775
18.081
53.8744
282.883
871.848
871.761
283.318
54.2724
18.2541
8.55278
4.69848
3.03678
2.3605
2.09529
1.99857
1.99461
2.09092
2.37129
3.05775
4.68514
8.46484
18.0868
53.7679
282.816
871.808
871.669
283.258
54.2339
18.2599
8.53177
4.68283
3.0175
2.34291
2.08967
1.98718
1.97964
2.07774
2.35555
3.03639
4.6743
8.4551
18.0994
53.7411
282.788
871.79
871.549
283.06
54.1242
18.2403
8.51015
4.67026
3.01836
2.34684
2.1009
1.99907
1.98263
2.07347
2.34573
3.0114
4.63232
8.46885
18.1403
53.7473
282.764
871.779
871.437
282.769
53.91
18.1474
8.50752
4.68222
3.01146
2.3438
2.11394
2.01435
1.98643
2.0841
2.35177
3.01177
4.65398
8.50615
18.1185
53.8029
282.775
871.769
871.378
282.537
53.7322
18.1366
8.4744
4.67251
3.0235
2.34771
2.10535
2.0141
2.02063
2.09496
2.37427
3.03644
4.65549
8.485
18.1842
53.8687
282.817
871.754
871.35
282.396
53.6343
18.0988
8.47801
4.66123
3.01819
2.3586
2.10333
2.01271
2.02381
2.0997
2.36935
3.03453
4.67601
8.51624
18.2064
53.9162
282.867
871.728
871.338
282.292
53.5762
18.0983
8.46279
4.63793
3.01679
2.35412
2.08537
2.00892
2.02072
2.10912
2.35281
3.0265
4.68171
8.53879
18.2535
53.9706
282.935
871.669
871.338
282.153
53.504
18.0971
8.46297
4.62285
3.00227
2.3362
2.07558
2.01199
2.01789
2.10632
2.35396
3.01659
4.68344
8.56963
18.2587
54.0648
282.979
871.559
871.361
282.042
53.4559
18.0864
8.46012
4.62253
2.99082
2.33212
2.09871
2.00093
2.01627
2.10466
2.35602
3.03155
4.69003
8.54494
18.2657
54.1252
282.97
871.492
871.472
282.035
53.4556
18.04
8.46554
4.63919
3.00085
2.34305
2.09145
2.01165
2.00234
2.09209
2.35698
3.05344
4.73541
8.5186
18.2124
54.1316
282.936
871.424
871.717
282.133
53.4923
18.0475
8.47489
4.66892
3.02644
2.35999
2.1188
2.00817
2.004
2.08355
2.35975
3.07515
4.74496
8.51135
18.1872
54.0943
282.863
871.305
871.862
282.518
53.6684
18.0786
8.50639
4.69526
3.03714
2.36353
2.1261
2.00614
2.00658
2.08749
2.35568
3.05402
4.736
8.5415
18.1428
53.9099
282.646
871.184
871.876
283.029
54.0576
18.187
8.50288
4.72299
3.05721
2.36774
2.12814
2.01453
1.99978
2.0891
2.35961
3.03596
4.70173
8.52663
18.1227
53.7225
282.386
871.11
871.842
283.232
54.2751
18.2893
8.5595
4.7144
3.06435
2.37877
2.11152
2.02634
2.00366
2.10793
2.36409
3.03431
4.70477
8.52012
18.0473
53.5916
282.243
871.093
871.715
283.253
54.3382
18.3146
8.57227
4.71414
3.06193
2.36954
2.10945
2.02239
2.02033
2.11518
2.36895
3.04802
4.69552
8.48593
18.0468
53.5459
282.186
871.106
871.58
283.206
54.3326
18.3239
8.56048
4.71848
3.06605
2.35776
2.10874
2.03153
2.01419
2.10536
2.36618
3.02905
4.68534
8.49167
18.0265
53.5191
282.171
871.159
871.448
283.099
54.2982
18.3163
8.56327
4.7192
3.06036
2.36014
2.11216
2.02567
2.01948
2.09632
2.34927
3.0218
4.65881
8.46214
18.0506
53.5207
282.159
871.214
871.314
283.033
54.2745
18.294
8.5842
4.73264
3.05657
2.36321
2.11605
2.01957
2.03383
2.09837
2.33925
3.01566
4.64368
8.45238
18.0534
53.5236
282.122
871.239
871.238
282.964
54.2477
18.3219
8.58416
4.71104
3.0594
2.37906
2.10434
2.02362
2.03669
2.09515
2.3357
3.01757
4.63149
8.4219
18.0673
53.5175
282.066
871.262
871.162
282.887
54.2135
18.2923
8.61375
4.72513
3.04356
2.37569
2.10705
2.02748
2.01595
2.11413
2.34258
3.02304
4.64971
8.41833
18.038
53.5088
282.065
871.32
871.088
282.816
54.1535
18.2537
8.61275
4.73558
3.04005
2.36701
2.10226
2.01645
2.01963
2.10755
2.35671
3.04637
4.66796
8.42333
18.037
53.5336
282.117
871.506
871.021
282.689
54.0165
18.2352
8.60473
4.71808
3.03984
2.36015
2.08849
2.01189
2.02162
2.10665
2.38063
3.04972
4.65784
8.44329
18.0706
53.6057
282.295
871.715
870.89
282.432
53.8593
18.1988
8.59009
4.71332
3.03272
2.35504
2.09235
2.01009
2.02154
2.11159
2.37606
3.0353
4.66334
8.45931
18.1594
53.7616
282.638
871.792
870.795
282.154
53.7194
18.1693
8.54024
4.71625
3.05285
2.37201
2.09798
2.00737
2.01881
2.1055
2.34992
3.03003
4.67098
8.46906