/*--------------------------------*- C++ -*----------------------------------*\
| =========                 |                                                 |
| \\      /  F ield         | OpenFOAM: The Open Source CFD Toolbox           |
|  \\    /   O peration     | Version:  2.1.0                                 |
|   \\  /    A nd           | Web:      www.OpenFOAM.org                      |
|    \\/     M anipulation  |                                                 |
\*---------------------------------------------------------------------------*/
FoamFile
{
    version     2.0;
    format      ascii;
    class       volScalarField;
    location    "0.05";
    object      p;
}
// * * * * * * * * * * * * * * * * * * * * * * * * * * * * * * * * * * * * * //

dimensions      [1 -1 -2 0 0 0 0];

internalField   nonuniform List<scalar> 
6400
(
99994.1
99996.8
99999.8
100003
100006
100009
100011
100015
100018
100021
100024
100026
100028
100030
100033
100036
100039
100042
100044
100046
100048
100051
100054
100057
100060
100062
100065
100068
100070
100072
100075
100078
100081
100084
100086
100088
100090
100092
100093
100095
100096
100097
100097
100097
100097
100097
100096
100094
100092
100089
100085
100080
100075
100068
100061
100052
100043
100032
100021
100008
99995
99980.5
99965
99948.7
99931.4
99913.4
99894.5
99874.9
99854.6
99833.7
99812.1
99789.9
99767.1
99743.9
99720.2
99696.1
99671.5
99646.6
99621.3
99595.7
99569.6
99543.2
99516.4
99489
99461
99432.2
99402.3
99370.9
99337.9
99302.9
99266.3
99229.4
99194.4
99162.3
99132.6
99100.9
99049.1
98942.8
98596
97082.4
99993.8
99996.7
99999.9
100003
100006
100009
100011
100015
100018
100021
100024
100026
100028
100030
100033
100036
100039
100042
100044
100046
100048
100051
100054
100057
100060
100062
100064
100067
100069
100071
100074
100077
100079
100082
100084
100086
100088
100090
100091
100092
100093
100094
100095
100095
100095
100095
100094
100092
100090
100087
100083
100079
100073
100067
100060
100051
100042
100031
100020
100008
99994
99979.5
99964.1
99947.8
99930.6
99912.5
99893.7
99874.1
99853.8
99832.8
99811.3
99789.1
99766.4
99743.2
99719.5
99695.4
99670.9
99646
99620.8
99595.2
99569.2
99542.9
99516.1
99488.8
99460.8
99432
99402.2
99371.1
99338.2
99303.6
99267.3
99230.6
99195.3
99163.5
99136.8
99109.4
99063.1
98971
98691.2
98179.3
99992.7
99996.4
100000
100003
100006
100009
100011
100015
100018
100021
100024
100025
100027
100030
100033
100035
100039
100042
100044
100046
100048
100050
100054
100058
100060
100061
100064
100067
100069
100071
100074
100077
100080
100082
100084
100086
100088
100090
100091
100093
100094
100094
100095
100095
100095
100095
100094
100092
100090
100087
100084
100079
100074
100067
100060
100052
100042
100032
100020
100008
99994.2
99979.7
99964.2
99947.8
99930.6
99912.5
99893.6
99874
99853.7
99832.8
99811.2
99789.1
99766.4
99743.3
99719.7
99695.7
99671.3
99646.6
99621.5
99596
99570.2
99544.1
99517.4
99490.3
99462.6
99434
99404.4
99373.6
99341.2
99307.3
99272.2
99237.2
99204.2
99175.4
99152.1
99127.5
99096.3
99041.2
98899.5
99001.9
99990
99996.1
100000
100003
100006
100009
100010
100015
100018
100021
100025
100025
100027
100031
100032
100035
100039
100043
100044
100045
100048
100050
100053
100058
100060
100061
100064
100068
100069
100070
100075
100078
100080
100083
100084
100086
100089
100090
100092
100093
100094
100095
100096
100096
100096
100095
100095
100093
100091
100088
100084
100080
100074
100068
100061
100052
100043
100032
100021
100008
99994.7
99980.2
99964.8
99948.5
99931.2
99913.2
99894.3
99874.7
99854.5
99833.6
99812.1
99790
99767.4
99744.3
99720.8
99696.9
99672.6
99647.9
99622.8
99597.4
99571.6
99545.4
99518.7
99491.5
99463.6
99435
99405.3
99374.5
99342.5
99309.4
99275.8
99243.3
99214.1
99190.2
99173.1
99162.6
99160
99168.3
99201
99616.9
99983.9
99996.5
100001
100002
100006
100009
100009
100015
100018
100021
100027
100025
100026
100031
100032
100034
100039
100044
100044
100045
100049
100048
100053
100060
100061
100060
100063
100070
100068
100069
100075
100078
100080
100084
100083
100086
100090
100090
100092
100094
100095
100096
100096
100097
100097
100096
100095
100094
100092
100089
100085
100081
100075
100069
100061
100053
100043
100033
100022
100009
99995.6
99981.1
99965.7
99949.4
99932.2
99914.2
99895.4
99875.8
99855.6
99834.7
99813.3
99791.2
99768.7
99745.6
99722.1
99698.2
99673.9
99649.2
99624
99598.5
99572.6
99546.2
99519.4
99491.9
99463.8
99434.9
99405.1
99374.4
99342.7
99310.6
99279
99249.7
99225.5
99208.3
99202
99212.7
99250.3
99341.3
99536.8
100097
99979.7
99999.9
100001
100003
100007
100009
100009
100015
100019
100021
100028
100025
100025
100031
100033
100032
100040
100045
100044
100046
100048
100047
100053
100062
100061
100058
100063
100072
100068
100068
100074
100078
100083
100084
100083
100088
100090
100090
100093
100094
100095
100096
100097
100097
100097
100097
100096
100094
100092
100089
100086
100081
100076
100069
100062
100054
100044
100034
100022
100010
99996.5
99982.1
99966.7
99950.4
99933.3
99915.3
99896.5
99877
99856.8
99835.9
99814.4
99792.4
99769.9
99746.8
99723.3
99699.3
99675
99650.2
99625
99599.3
99573.2
99546.7
99519.5
99491.8
99463.3
99434.2
99404.2
99373.5
99342.3
99311.2
99281.6
99255.8
99236.8
99227.5
99234.9
99271
99355.2
99533.4
99856.7
100470
99990
100006
100001
100004
100007
100008
100011
100014
100018
100022
100028
100027
100024
100029
100034
100031
100040
100046
100043
100047
100048
100046
100053
100064
100062
100057
100063
100072
100070
100068
100071
100078
100086
100084
100083
100089
100088
100090
100095
100095
100096
100097
100097
100098
100098
100097
100096
100095
100093
100090
100086
100082
100077
100070
100063
100054
100045
100035
100023
100011
99997.3
99982.9
99967.5
99951.3
99934.1
99916.2
99897.4
99877.9
99857.7
99836.9
99815.4
99793.4
99770.9
99747.8
99724.3
99700.3
99675.9
99651
99625.7
99599.9
99573.6
99546.8
99519.4
99491.4
99462.6
99433.1
99402.9
99372.2
99341.4
99311.4
99283.6
99260.9
99246.9
99245.6
99267.2
99329.1
99459.8
99716.6
100129
100748
100005
100010
100004
100004
100007
100008
100011
100011
100017
100025
100028
100028
100025
100028
100033
100032
100041
100046
100043
100045
100046
100048
100055
100063
100062
100058
100061
100071
100072
100068
100070
100078
100087
100084
100084
100089
100086
100091
100096
100095
100096
100097
100098
100098
100098
100098
100097
100096
100094
100091
100087
100083
100077
100071
100063
100055
100045
100035
100024
100011
99997.8
99983.4
99968
99951.8
99934.7
99916.7
99898
99878.5
99858.4
99837.6
99816.1
99794.2
99771.6
99748.6
99725.1
99701.1
99676.7
99651.8
99626.4
99600.5
99574
99547
99519.4
99491
99461.9
99432
99401.6
99370.8
99340.3
99311
99284.7
99264.4
99254.4
99260.3
99294.4
99378.8
99549.4
99868.6
100337
100944
100021
100013
100008
100004
100008
100009
100010
100008
100017
100028
100027
100028
100028
100027
100031
100034
100042
100046
100044
100042
100043
100051
100058
100061
100062
100060
100058
100069
100074
100070
100070
100078
100086
100085
100086
100088
100085
100092
100096
100094
100096
100097
100098
100098
100098
100098
100097
100096
100094
100091
100087
100083
100077
100071
100064
100055
100046
100035
100024
100011
99998
99983.6
99968.2
99952
99934.9
99917
99898.3
99878.9
99858.8
99838
99816.7
99794.7
99772.3
99749.3
99725.8
99701.9
99677.5
99652.5
99627.1
99601.1
99574.5
99547.3
99519.4
99490.7
99461.2
99430.9
99400.2
99369.3
99338.8
99309.9
99284.6
99265.9
99258.5
99269.7
99312.8
99413.7
99613.1
99974.9
100475
101068
100033
100014
100011
100004
100008
100011
100006
100009
100019
100026
100027
100029
100028
100025
100031
100034
100044
100047
100045
100040
100041
100052
100058
100062
100062
100061
100059
100067
100072
100071
100073
100078
100085
100085
100087
100087
100085
100092
100096
100094
100096
100098
100098
100098
100099
100098
100098
100096
100094
100091
100088
100083
100078
100071
100064
100055
100046
100035
100024
100011
99998
99983.6
99968.3
99952.1
99935
99917.1
99898.5
99879.1
99859
99838.4
99817.1
99795.2
99772.8
99749.9
99726.5
99702.6
99678.2
99653.2
99627.8
99601.7
99575
99547.6
99519.4
99490.5
99460.7
99430.1
99398.8
99367.5
99336.8
99308
99283.1
99265
99258.8
99272.5
99320.6
99429.3
99643.4
100026
100541
101128
100025
100011
100010
100005
100008
100009
100003
100013
100023
100023
100027
100031
100027
100026
100031
100034
100043
100047
100044
100041
100041
100050
100058
100063
100063
100062
100060
100065
100070
100071
100076
100079
100084
100085
100086
100087
100085
100092
100097
100095
100096
100098
100098
100098
100099
100098
100098
100096
100094
100091
100088
100083
100078
100071
100064
100055
100046
100035
100024
100012
99998.1
99983.7
99968.4
99952.1
99935.1
99917.2
99898.6
99879.3
99859.3
99838.6
99817.4
99795.6
99773.2
99750.4
99727
99703.1
99678.7
99653.8
99628.3
99602.2
99575.4
99547.8
99519.4
99490.1
99459.9
99428.9
99397.2
99365.3
99334.2
99305
99279.9
99261.5
99254.8
99268.3
99316.1
99424.3
99636.8
100018
100531
101118
100003
100006
100006
100005
100010
100007
100004
100014
100021
100024
100028
100028
100027
100028
100031
100034
100043
100044
100043
100045
100042
100046
100058
100063
100063
100064
100062
100063
100067
100071
100079
100080
100082
100085
100085
100087
100085
100091
100097
100095
100096
100097
100098
100098
100098
100098
100097
100096
100094
100091
100087
100083
100077
100071
100064
100055
100046
100035
100024
100012
99998.1
99983.7
99968.4
99952.2
99935.2
99917.3
99898.7
99879.4
99859.4
99838.8
99817.6
99795.8
99773.5
99750.7
99727.4
99703.5
99679.1
99654.2
99628.7
99602.5
99575.6
99547.9
99519.2
99489.7
99459.1
99427.5
99395.3
99362.8
99330.9
99301
99275.2
99255.6
99246.9
99257.3
99299.9
99398.5
99594
99950.4
100447
101040
99985
100000
100001
100004
100010
100009
100007
100014
100017
100024
100028
100025
100029
100029
100030
100035
100041
100043
100043
100047
100042
100043
100057
100062
100064
100066
100062
100061
100065
100073
100080
100080
100081
100085
100085
100087
100086
100090
100096
100095
100096
100097
100098
100098
100098
100098
100097
100096
100093
100091
100087
100082
100077
100071
100063
100055
100045
100035
100024
100011
99997.9
99983.6
99968.3
99952.1
99935.1
99917.2
99898.6
99879.3
99859.4
99838.8
99817.6
99795.9
99773.6
99750.8
99727.6
99703.8
99679.4
99654.5
99629
99602.8
99575.8
99548
99519.2
99489.3
99458.3
99426.3
99393.4
99360.2
99327.3
99296.2
99269.1
99247.7
99235.8
99240.6
99273.6
99354.7
99519.5
99830.7
100294
100901
99982.9
99995.7
99997.4
100005
100009
100008
100010
100012
100017
100025
100026
100025
100029
100031
100031
100035
100040
100043
100043
100047
100042
100044
100056
100058
100065
100067
100063
100059
100063
100077
100080
100079
100081
100084
100086
100085
100087
100091
100095
100095
100095
100097
100097
100098
100098
100097
100096
100095
100093
100090
100086
100082
100076
100070
100063
100054
100045
100035
100023
100011
99997.5
99983.1
99967.8
99951.7
99934.7
99916.9
99898.3
99879
99859.1
99838.6
99817.4
99795.8
99773.6
99750.9
99727.7
99703.9
99679.7
99654.8
99629.3
99603.1
99576.1
99548.2
99519.2
99489.1
99457.8
99425.3
99391.8
99357.6
99323.5
99291
99261.9
99238.1
99222.2
99219.7
99239.8
99297.6
99421.1
99667.7
100072
100690
99983.7
99992.5
99996.8
100004
100008
100008
100012
100012
100018
100025
100023
100026
100029
100032
100031
100034
100041
100042
100043
100046
100043
100046
100054
100057
100064
100068
100063
100059
100065
100076
100078
100079
100081
100083
100086
100084
100087
100092
100093
100094
100095
100096
100097
100097
100097
100097
100096
100094
100092
100089
100086
100081
100076
100069
100062
100054
100044
100034
100023
100010
99996.8
99982.4
99967.1
99951
99934
99916.2
99897.6
99878.4
99858.5
99838
99817
99795.4
99773.3
99750.6
99727.5
99703.9
99679.7
99654.9
99629.5
99603.3
99576.3
99548.4
99519.3
99489.1
99457.5
99424.6
99390.4
99355.2
99319.8
99285.5
99254.1
99227.5
99207.2
99196.7
99202.7
99234.4
99310.7
99477.1
99788.2
100398
99986.6
99992.2
99997.1
100003
100007
100008
100011
100013
100017
100024
100023
100026
100029
100032
100032
100034
100040
100041
100044
100045
100044
100048
100053
100057
100062
100066
100064
100061
100067
100074
100077
100078
100081
100082
100085
100084
100087
100092
100092
100094
100095
100096
100096
100097
100097
100096
100095
100094
100092
100089
100085
100081
100075
100069
100061
100053
100044
100033
100022
100009
99995.9
99981.5
99966.3
99950.1
99933.1
99915.3
99896.8
99877.6
99857.7
99837.2
99816.2
99794.7
99772.6
99750.1
99727.1
99703.5
99679.4
99654.7
99629.3
99603.2
99576.3
99548.3
99519.2
99488.8
99457
99423.7
99388.9
99352.9
99316.2
99280.1
99246.3
99216.7
99192.3
99174.3
99167
99173.5
99203
99281.6
99461.5
100012
99989.1
99993.1
99997.4
100003
100006
100009
100011
100014
100018
100022
100023
100026
100029
100031
100033
100035
100039
100041
100044
100045
100045
100049
100053
100057
100061
100064
100064
100064
100068
100073
100076
100078
100081
100082
100085
100085
100087
100091
100091
100093
100094
100095
100096
100096
100096
100096
100095
100093
100091
100088
100084
100080
100074
100068
100061
100052
100043
100033
100021
100009
99995.2
99980.8
99965.5
99949.4
99932.4
99914.6
99896
99876.8
99856.9
99836.5
99815.5
99794
99771.9
99749.4
99726.4
99702.9
99678.8
99654.2
99628.9
99602.8
99575.9
99547.9
99518.7
99488.3
99456.3
99422.7
99387.4
99350.6
99312.7
99274.9
99238.9
99206.6
99178.8
99156.7
99137.7
99123
99112.7
99108.6
99123.3
99520
99990.4
99993.8
99997.7
100002
100006
100009
100011
100014
100018
100022
100024
100026
100029
100031
100033
100035
100038
100041
100043
100045
100046
100049
100053
100057
100060
100063
100064
100065
100068
100073
100076
100078
100080
100082
100084
100085
100087
100090
100091
100093
100094
100095
100095
100095
100095
100095
100094
100092
100090
100087
100084
100079
100074
100068
100060
100052
100042
100032
100021
100008
99994.8
99980.4
99965.1
99948.9
99931.9
99914.1
99895.6
99876.4
99856.5
99836
99815.1
99793.5
99771.5
99749
99725.9
99702.4
99678.3
99653.6
99628.3
99602.2
99575.2
99547.1
99517.9
99487.3
99455.2
99421.3
99385.6
99348.2
99309.3
99270
99232.3
99198
99167.8
99142.4
99117.1
99088.9
99050.4
98983.3
98822.3
98892
99991.1
99994.3
99998
100002
100006
100009
100011
100014
100018
100021
100024
100026
100028
100031
100033
100035
100038
100041
100043
100045
100047
100050
100053
100057
100060
100063
100064
100066
100069
100072
100075
100078
100080
100082
100084
100085
100087
100090
100091
100092
100094
100094
100095
100095
100095
100095
100094
100092
100090
100087
100084
100079
100074
100067
100060
100052
100042
100032
100020
100008
99994.7
99980.4
99965.1
99949
99932
99914.3
99895.8
99876.6
99856.8
99836.4
99815.5
99793.9
99771.9
99749.4
99726.3
99702.7
99678.6
99653.8
99628.4
99602.1
99575
99546.8
99517.3
99486.5
99454
99419.7
99383.5
99345.3
99305.5
99264.9
99225.5
99189.4
99157.2
99129.7
99105
99072.2
99018.4
98914.4
98615
98047.7
99991.4
99994.5
99998.1
100002
100006
100009
100011
100014
100018
100021
100024
100026
100028
100031
100033
100035
100038
100041
100043
100045
100047
100050
100053
100057
100060
100063
100065
100067
100070
100073
100077
100079
100082
100084
100086
100087
100090
100092
100093
100095
100096
100097
100097
100098
100097
100097
100096
100094
100092
100089
100085
100080
100075
100068
100061
100053
100043
100033
100022
100009
99995.7
99981.4
99966.1
99950
99933
99915.3
99896.8
99877.6
99857.8
99837.4
99816.5
99795
99772.9
99750.4
99727.4
99703.8
99679.7
99655
99629.5
99603.3
99576.2
99547.9
99518.5
99487.6
99455
99420.7
99384.3
99346
99305.9
99265.3
99226.1
99190.2
99159.7
99131.6
99098.1
99055.8
98998.2
98883.6
98519.1
96917.4
100541
101755
102269
102561
102760
102908
103026
103120
103198
103263
103317
103362
103400
103431
103456
103476
103491
103502
103508
103508
100491
101470
102070
102447
102699
102879
103016
103123
103209
103280
103338
103385
103425
103457
103483
103503
103519
103529
103534
103534
100754
101489
102007
102383
102654
102853
103003
103121
103215
103290
103352
103402
103443
103476
103503
103524
103539
103549
103554
103554
101003
101601
102041
102384
102647
102848
103005
103128
103226
103305
103369
103421
103463
103497
103524
103545
103560
103569
103573
103572
101213
101720
102105
102416
102664
102860
103016
103141
103241
103322
103388
103441
103484
103518
103545
103565
103579
103588
103591
103590
101388
101830
102175
102460
102693
102882
103035
103159
103259
103341
103407
103461
103504
103538
103564
103584
103597
103605
103607
103605
101527
101922
102240
102505
102725
102906
103055
103177
103277
103359
103425
103479
103522
103556
103582
103601
103613
103619
103621
103617
101631
101994
102292
102543
102754
102929
103075
103195
103294
103375
103441
103495
103538
103572
103597
103615
103626
103631
103632
103627
101701
102044
102330
102573
102778
102949
103092
103211
103309
103389
103455
103509
103551
103585
103610
103627
103637
103641
103640
103633
101739
102072
102353
102591
102793
102962
103104
103221
103318
103398
103463
103516
103559
103592
103616
103633
103642
103646
103644
103636
101729
102063
102344
102583
102785
102955
103096
103214
103312
103392
103457
103511
103554
103587
103612
103629
103639
103643
103641
103634
101677
102022
102309
102553
102759
102931
103075
103195
103294
103375
103442
103496
103540
103574
103600
103618
103629
103634
103634
103628
101596
101961
102261
102514
102727
102904
103052
103173
103274
103356
103424
103479
103523
103558
103584
103604
103616
103622
103623
103619
101480
101879
102199
102467
102690
102874
103026
103150
103252
103335
103403
103459
103503
103539
103566
103586
103600
103607
103610
103607
101330
101776
102125
102414
102650
102843
102999
103126
103229
103313
103381
103437
103482
103518
103546
103567
103581
103590
103593
103591
101145
101658
102047
102362
102614
102815
102975
103103
103207
103290
103358
103414
103459
103495
103523
103545
103561
103570
103575
103573
100925
101530
101975
102323
102592
102799
102960
103086
103188
103270
103337
103391
103435
103471
103500
103522
103538
103549
103554
103553
100665
101409
101934
102318
102595
102799
102955
103076
103173
103252
103316
103369
103413
103448
103476
103499
103515
103527
103532
103532
100390
101383
101994
102380
102638
102824
102965
103076
103166
103240
103300
103351
103392
103426
103454
103476
103493
103504
103510
103510
100432
101668
102193
102492
102697
102851
102973
103071
103153
103220
103277
103324
103364
103397
103424
103446
103462
103474
103480
103481
103360
103357
103357
103356
103355
103355
103354
103354
103354
103353
103353
103354
103354
103354
103355
103355
103356
103357
103357
103360
103357
103354
103354
103354
103353
103353
103353
103353
103353
103352
103352
103353
103353
103353
103353
103353
103354
103354
103354
103357
103356
103353
103353
103353
103353
103353
103353
103353
103353
103353
103353
103353
103353
103353
103353
103353
103353
103353
103353
103356
103356
103354
103354
103354
103354
103354
103354
103354
103354
103354
103354
103354
103354
103354
103354
103354
103354
103354
103354
103356
103355
103354
103353
103353
103353
103353
103353
103353
103353
103353
103353
103353
103353
103353
103353
103353
103353
103353
103354
103355
103355
103353
103353
103353
103353
103353
103353
103353
103353
103353
103353
103353
103353
103353
103353
103353
103353
103353
103353
103355
103354
103352
103352
103352
103352
103352
103352
103352
103352
103352
103352
103352
103352
103352
103352
103352
103352
103352
103352
103354
103353
103352
103352
103352
103351
103351
103351
103351
103351
103351
103351
103351
103351
103351
103351
103351
103352
103352
103352
103353
103353
103351
103351
103351
103351
103351
103351
103351
103351
103351
103351
103351
103351
103351
103351
103351
103351
103351
103351
103353
103352
103350
103350
103350
103350
103350
103350
103350
103350
103350
103350
103350
103350
103350
103350
103350
103350
103350
103350
103352
103351
103349
103349
103349
103349
103349
103349
103349
103349
103349
103349
103349
103349
103349
103349
103349
103349
103349
103349
103351
103350
103349
103349
103348
103348
103349
103349
103349
103349
103349
103349
103349
103349
103349
103348
103348
103348
103348
103349
103350
103350
103348
103348
103348
103348
103348
103348
103348
103348
103348
103348
103348
103348
103348
103348
103348
103348
103348
103348
103349
103349
103347
103347
103347
103347
103347
103347
103348
103348
103348
103348
103348
103348
103347
103347
103347
103347
103347
103347
103349
103348
103346
103346
103346
103346
103346
103346
103347
103347
103347
103347
103347
103347
103346
103346
103346
103346
103346
103346
103347
103346
103344
103344
103344
103345
103345
103345
103345
103345
103345
103345
103345
103345
103345
103345
103344
103344
103344
103344
103346
103345
103343
103343
103343
103343
103343
103343
103343
103342
103342
103342
103342
103342
103343
103343
103343
103343
103343
103343
103345
103344
103342
103342
103342
103341
103341
103341
103341
103340
103341
103341
103341
103342
103342
103342
103342
103342
103342
103342
103344
103342
103340
103340
103341
103341
103341
103342
103342
103342
103342
103343
103343
103342
103341
103341
103341
103341
103340
103340
103342
103341
103339
103339
103339
103340
103341
103341
103342
103342
103342
103342
103341
103341
103341
103340
103340
103339
103339
103339
103341
103339
103337
103337
103337
103338
103338
103338
103339
103339
103340
103340
103340
103340
103339
103338
103338
103338
103337
103337
103339
103337
103335
103335
103335
103335
103335
103335
103336
103336
103336
103336
103336
103336
103336
103336
103336
103336
103335
103335
103337
103335
103333
103333
103333
103333
103333
103332
103331
103330
103329
103329
103330
103331
103332
103333
103333
103333
103333
103333
103335
103333
103331
103331
103331
103331
103331
103330
103330
103329
103329
103330
103330
103331
103331
103331
103331
103331
103332
103332
103333
103331
103330
103330
103330
103330
103331
103331
103331
103331
103331
103331
103331
103331
103331
103331
103330
103330
103330
103330
103331
103329
103328
103328
103328
103328
103328
103328
103329
103329
103330
103329
103329
103330
103329
103329
103329
103329
103329
103329
103330
103328
103327
103327
103327
103327
103327
103327
103327
103327
103327
103328
103328
103328
103328
103327
103327
103327
103327
103327
103328
103326
103326
103326
103326
103326
103325
103325
103324
103323
103323
103324
103324
103324
103324
103325
103325
103326
103326
103326
103327
103325
103325
103324
103324
103324
103324
103324
103324
103324
103325
103325
103325
103325
103325
103325
103325
103325
103325
103325
103325
103324
103324
103324
103324
103324
103325
103325
103325
103325
103325
103325
103325
103325
103325
103325
103324
103324
103324
103324
103324
103323
103323
103323
103323
103323
103323
103323
103323
103323
103323
103321
103321
103321
103322
103322
103323
103323
103323
103323
103323
103322
103322
103322
103322
103321
103321
103322
103322
103322
103321
103322
103322
103322
103321
103322
103322
103322
103322
103322
103322
103321
103321
103321
103321
103321
103322
103321
103321
103320
103321
103322
103323
103323
103322
103321
103320
103320
103320
103320
103321
103319
103319
103319
103319
103319
103319
103319
103319
103319
103319
103318
103318
103318
103318
103319
103319
103319
103319
103319
103319
103318
103318
103318
103318
103318
103319
103320
103319
103319
103319
103318
103316
103316
103317
103317
103318
103318
103318
103318
103318
103317
103317
103317
103317
103317
103317
103318
103318
103318
103318
103318
103317
103317
103318
103317
103316
103317
103317
103317
103317
103315
103315
103316
103316
103316
103316
103316
103317
103318
103317
103318
103318
103318
103317
103317
103317
103316
103316
103315
103315
103314
103314
103314
103315
103316
103318
103319
103320
103320
103320
103319
103318
103318
103317
103316
103314
103314
103313
103313
103313
103311
103311
103311
103312
103312
103314
103316
103317
103316
103315
103315
103315
103312
103312
103311
103311
103311
103311
103311
103311
103308
103308
103308
103308
103307
103306
103304
103304
103304
103305
103306
103307
103307
103307
103308
103308
103308
103309
103309
103309
103306
103306
103305
103305
103304
103303
103301
103300
103301
103302
103302
103302
103304
103305
103305
103306
103306
103307
103307
103307
103304
103304
103304
103303
103303
103302
103302
103302
103301
103300
103300
103302
103302
103302
103303
103304
103305
103305
103305
103305
103303
103303
103302
103302
103302
103302
103301
103300
103300
103300
103301
103301
103302
103303
103304
103304
103304
103303
103303
103303
103301
103301
103301
103301
103301
103301
103301
103302
103302
103303
103304
103304
103303
103302
103302
103302
103302
103302
103302
103302
103300
103300
103301
103301
103301
103301
103301
103301
103302
103303
103303
103302
103301
103301
103300
103300
103300
103300
103300
103300
103299
103299
103299
103299
103299
103300
103300
103300
103299
103298
103297
103297
103298
103298
103298
103298
103299
103299
103299
103299
103298
103298
103298
103298
103297
103297
103296
103296
103296
103295
103294
103295
103296
103296
103296
103297
103297
103297
103298
103298
103297
103297
103297
103297
103296
103296
103296
103296
103296
103296
103297
103297
103296
103296
103297
103297
103297
103297
103297
103297
103296
103296
103296
103296
103296
103296
103297
103297
103298
103297
103298
103297
103297
103296
103296
103296
103296
103296
103296
103296
103294
103294
103295
103295
103295
103295
103295
103296
103297
103298
103297
103296
103295
103295
103295
103295
103295
103295
103295
103295
103293
103293
103293
103293
103293
103294
103295
103294
103294
103294
103294
103294
103294
103295
103294
103294
103294
103294
103294
103294
103292
103292
103292
103292
103292
103292
103293
103293
103292
103291
103291
103292
103292
103292
103292
103292
103292
103293
103293
103293
103291
103291
103291
103291
103290
103290
103289
103289
103290
103290
103290
103290
103291
103291
103291
103291
103292
103292
103292
103292
103289
103289
103289
103289
103289
103289
103288
103287
103287
103289
103290
103291
103291
103291
103291
103292
103291
103291
103291
103291
103288
103288
103288
103287
103287
103287
103288
103288
103288
103289
103290
103292
103292
103293
103293
103292
103291
103290
103290
103289
103286
103286
103286
103286
103286
103286
103287
103288
103288
103288
103288
103290
103291
103290
103289
103288
103288
103288
103288
103287
103285
103285
103285
103285
103285
103285
103285
103285
103285
103285
103284
103283
103282
103282
103282
103284
103285
103285
103285
103285
103284
103284
103284
103284
103284
103283
103283
103282
103282
103283
103282
103281
103280
103281
103282
103283
103283
103284
103284
103284
103283
103283
103283
103283
103284
103284
103284
103283
103282
103282
103282
103283
103284
103284
103283
103282
103282
103282
103282
103282
103282
103281
103281
103281
103281
103281
103281
103281
103281
103281
103280
103280
103280
103279
103280
103280
103281
103281
103281
103281
103280
103280
103280
103280
103280
103280
103280
103280
103280
103280
103280
103279
103278
103278
103279
103280
103280
103280
103280
103280
103279
103279
103280
103280
103280
103280
103280
103280
103279
103279
103279
103280
103281
103281
103280
103279
103279
103279
103279
103279
103278
103278
103278
103278
103278
103278
103278
103278
103278
103278
103278
103278
103278
103277
103277
103277
103278
103278
103278
103278
103277
103277
103277
103277
103277
103277
103276
103276
103277
103277
103277
103276
103276
103276
103276
103276
103276
103277
103277
103277
103277
103277
103277
103277
103277
103277
103277
103277
103276
103276
103276
103276
103275
103275
103276
103275
103276
103276
103276
103276
103276
103276
103276
103276
103276
103276
103276
103276
103276
103276
103277
103276
103275
103275
103275
103276
103275
103275
103275
103275
103275
103275
103275
103275
103275
103275
103275
103275
103276
103276
103275
103274
103275
103275
103275
103274
103274
103274
103274
103274
103274
103274
103274
103274
103274
103275
103275
103275
103274
103273
103273
103273
103273
103273
103273
103273
103273
103273
103273
103273
103272
103272
103272
103272
103272
103272
103271
103271
103271
103271
103272
103272
103272
103272
103273
103273
103273
103272
103272
103272
103271
103271
103271
103271
103271
103270
103270
103271
103271
103272
103272
103272
103272
103273
103272
103272
103271
103271
103271
103271
103270
103270
103270
103271
103271
103272
103272
103273
103272
103273
103273
103272
103271
103270
103270
103270
103270
103270
103270
103270
103269
103269
103269
103269
103269
103269
103270
103271
103271
103270
103269
103269
103268
103269
103269
103269
103269
103269
103269
103269
103267
103267
103267
103267
103267
103267
103267
103267
103267
103267
103267
103267
103268
103268
103268
103268
103268
103268
103268
103268
103266
103266
103266
103266
103267
103267
103267
103266
103266
103268
103270
103270
103269
103268
103268
103267
103267
103267
103267
103267
103264
103264
103264
103264
103264
103264
103265
103266
103267
103268
103269
103269
103268
103267
103267
103267
103266
103265
103265
103265
103263
103262
103262
103262
103262
103261
103261
103261
103261
103260
103259
103261
103262
103264
103263
103263
103263
103263
103263
103263
103261
103261
103261
103261
103262
103262
103261
103260
103258
103257
103256
103256
103257
103258
103259
103261
103261
103261
103262
103262
103259
103259
103259
103259
103259
103259
103259
103260
103260
103259
103258
103258
103257
103257
103258
103259
103260
103260
103260
103260
103258
103258
103258
103257
103257
103257
103256
103256
103256
103257
103257
103258
103258
103259
103259
103259
103259
103259
103259
103259
103257
103257
103257
103257
103257
103257
103257
103256
103255
103256
103257
103257
103258
103258
103258
103258
103258
103258
103258
103258
103255
103255
103255
103256
103256
103256
103256
103257
103257
103258
103257
103257
103258
103257
103257
103257
103257
103258
103258
103258
103254
103254
103254
103254
103255
103255
103256
103256
103256
103256
103257
103257
103257
103258
103259
103258
103258
103258
103257
103257
103252
103252
103252
103252
103252
103252
103253
103254
103254
103255
103255
103256
103256
103256
103256
103256
103257
103257
103257
103257
103250
103250
103250
103251
103251
103251
103251
103252
103253
103254