/*--------------------------------*- C++ -*----------------------------------*\
| =========                 |                                                 |
| \\      /  F ield         | OpenFOAM: The Open Source CFD Toolbox           |
|  \\    /   O peration     | Version:  2.1.0                                 |
|   \\  /    A nd           | Web:      www.OpenFOAM.org                      |
|    \\/     M anipulation  |                                                 |
\*---------------------------------------------------------------------------*/
FoamFile
{
    version     2.0;
    format      ascii;
    class       surfaceScalarField;
    location    "0.05";
    object      phi;
}
// * * * * * * * * * * * * * * * * * * * * * * * * * * * * * * * * * * * * * //

dimensions      [0 3 -1 0 0 0 0];

internalField   nonuniform List<scalar> 
12460
(
-3.1763e-05
2.23421e-08
-3.1775e-05
1.20499e-08
-3.17839e-05
8.94213e-09
-3.17919e-05
7.91201e-09
-3.17984e-05
6.53171e-09
-3.18042e-05
5.79444e-09
-3.181e-05
5.79532e-09
-3.18154e-05
5.45499e-09
-3.18209e-05
5.47364e-09
-3.18263e-05
5.41723e-09
-3.18308e-05
4.50546e-09
-3.18348e-05
3.94187e-09
-3.18367e-05
1.96671e-09
-3.18352e-05
-1.52844e-09
-3.18327e-05
-2.53953e-09
-3.18303e-05
-2.35479e-09
-3.18274e-05
-2.8887e-09
-3.18241e-05
-3.35205e-09
-3.18209e-05
-3.22059e-09
-3.18169e-05
-3.96386e-09
-3.18123e-05
-4.58435e-09
-3.18079e-05
-4.37078e-09
-3.18036e-05
-4.38405e-09
-3.17996e-05
-3.99653e-09
-3.17963e-05
-3.29934e-09
-3.17933e-05
-3.00019e-09
-3.17901e-05
-3.12074e-09
-3.17866e-05
-3.48541e-09
-3.1783e-05
-3.60223e-09
-3.17773e-05
-5.78065e-09
-3.1767e-05
-1.0219e-08
-3.17531e-05
-1.39867e-08
-3.17364e-05
-1.66166e-08
-3.1715e-05
-2.13996e-08
-3.16874e-05
-2.76791e-08
-3.16521e-05
-3.52227e-08
-3.16083e-05
-4.38769e-08
-3.15539e-05
-5.43689e-08
-3.14866e-05
-6.73424e-08
-3.14069e-05
-7.9658e-08
-3.1314e-05
-9.29155e-08
-3.12056e-05
-1.084e-07
-3.10795e-05
-1.26108e-07
-3.09334e-05
-1.46061e-07
-3.07651e-05
-1.68352e-07
-3.0572e-05
-1.93013e-07
-3.03521e-05
-2.1998e-07
-3.0103e-05
-2.49044e-07
-2.98231e-05
-2.79944e-07
-2.95107e-05
-3.1238e-07
-2.91649e-05
-3.45846e-07
-2.87852e-05
-3.79665e-07
-2.8372e-05
-4.1316e-07
-2.79263e-05
-4.45689e-07
-2.74496e-05
-4.76782e-07
-2.69434e-05
-5.06191e-07
-2.64096e-05
-5.33803e-07
-2.585e-05
-5.59579e-07
-2.52667e-05
-5.83314e-07
-2.46619e-05
-6.0482e-07
-2.40378e-05
-6.24006e-07
-2.33971e-05
-6.40779e-07
-2.2742e-05
-6.55113e-07
-2.20748e-05
-6.67108e-07
-2.13979e-05
-6.76912e-07
-2.07133e-05
-6.84645e-07
-2.00229e-05
-6.90424e-07
-1.93284e-05
-6.94452e-07
-1.86313e-05
-6.97064e-07
-1.79328e-05
-6.98584e-07
-1.72335e-05
-6.99249e-07
-1.65342e-05
-6.99293e-07
-1.58353e-05
-6.9891e-07
-1.51372e-05
-6.9816e-07
-1.444e-05
-6.97108e-07
-1.37441e-05
-6.9598e-07
-1.3049e-05
-6.95078e-07
-1.23542e-05
-6.94758e-07
-1.16587e-05
-6.95577e-07
-1.09605e-05
-6.98108e-07
-1.02579e-05
-7.02643e-07
-9.54815e-06
-7.09755e-07
-8.82759e-06
-7.20556e-07
-8.0921e-06
-7.35494e-07
-7.33753e-06
-7.54564e-07
-6.55884e-06
-7.78693e-07
-5.75043e-06
-8.08407e-07
-4.90876e-06
-8.41669e-07
-4.03486e-06
-8.73899e-07
-3.13889e-06
-8.95976e-07
-2.24987e-06
-8.89022e-07
-1.43056e-06
-8.19306e-07
-7.83361e-07
-6.47198e-07
-4.05171e-07
-3.7819e-07
-3.23123e-07
-8.20485e-08
-5.85061e-07
2.61938e-07
-1.47184e-06
8.86778e-07
-3.68269e-06
2.21085e-06
-8.94165e-06
5.25895e-06
1.45339e-05
-2.34755e-05
-3.8823e-05
4.51678e-08
-3.88352e-05
2.42221e-08
-3.88444e-05
1.81357e-08
-3.88528e-05
1.63119e-08
-3.88594e-05
1.31566e-08
-3.88652e-05
1.15706e-08
-3.88711e-05
1.16999e-08
-3.88763e-05
1.07078e-08
-3.88814e-05
1.0596e-08
-3.88865e-05
1.04711e-08
-3.88904e-05
8.35622e-09
-3.88939e-05
7.44233e-09
-3.88951e-05
3.2252e-09
-3.88921e-05
-4.51434e-09
-3.88876e-05
-7.07039e-09
-3.88835e-05
-6.47205e-09
-3.88786e-05
-7.73816e-09
-3.88731e-05
-8.86501e-09
-3.8868e-05
-8.36821e-09
-3.88618e-05
-1.01756e-08
-3.88547e-05
-1.16817e-08
-3.88479e-05
-1.11297e-08
-3.88404e-05
-1.19178e-08
-3.88319e-05
-1.24697e-08
-3.88228e-05
-1.23848e-08
-3.88123e-05
-1.35372e-08
-3.87994e-05
-1.59994e-08
-3.87838e-05
-1.91112e-08
-3.87654e-05
-2.19515e-08
-3.87404e-05
-3.08039e-08
-3.87046e-05
-4.59897e-08
-3.86592e-05
-5.94214e-08
-3.86058e-05
-6.99818e-08
-3.85407e-05
-8.65123e-08
-3.84619e-05
-1.06518e-07
-3.83677e-05
-1.29441e-07
-3.8257e-05
-1.54568e-07
-3.81281e-05
-1.83208e-07
-3.7978e-05
-2.17457e-07
-3.78088e-05
-2.48847e-07
-3.762e-05
-2.81732e-07
-3.74096e-05
-3.18831e-07
-3.71759e-05
-3.59769e-07
-3.69176e-05
-4.04385e-07
-3.66336e-05
-4.52317e-07
-3.63234e-05
-5.03264e-07
-3.59865e-05
-5.56806e-07
-3.56233e-05
-6.12268e-07
-3.52344e-05
-6.68844e-07
-3.4821e-05
-7.25782e-07
-3.43844e-05
-7.82429e-07
-3.3926e-05
-8.38062e-07
-3.34473e-05
-8.91866e-07
-3.29501e-05
-9.42961e-07
-3.24362e-05
-9.90665e-07
-3.19078e-05
-1.03459e-06
-3.1367e-05
-1.07453e-06
-3.08162e-05
-1.11038e-06
-3.02575e-05
-1.14203e-06
-2.96929e-05
-1.16949e-06
-2.91239e-05
-1.19294e-06
-2.85521e-05
-1.21256e-06
-2.79788e-05
-1.22843e-06
-2.74053e-05
-1.24061e-06
-2.6833e-05
-1.2492e-06
-2.62633e-05
-1.25434e-06
-2.56975e-05
-1.25624e-06
-2.51367e-05
-1.25525e-06
-2.45819e-05
-1.2519e-06
-2.40337e-05
-1.24683e-06
-2.34924e-05
-1.24052e-06
-2.29583e-05
-1.23335e-06
-2.24316e-05
-1.22565e-06
-2.19121e-05
-1.21761e-06
-2.13998e-05
-1.20948e-06
-2.08941e-05
-1.20165e-06
-2.03946e-05
-1.19456e-06
-1.99007e-05
-1.18863e-06
-1.94116e-05
-1.18468e-06
-1.89261e-05
-1.18365e-06
-1.84427e-05
-1.18604e-06
-1.796e-05
-1.19243e-06
-1.74762e-05
-1.20444e-06
-1.69884e-05
-1.22328e-06
-1.64936e-05
-1.24935e-06
-1.59889e-05
-1.28337e-06
-1.54724e-05
-1.32491e-06
-1.49434e-05
-1.37064e-06
-1.44031e-05
-1.41421e-06
-1.38568e-05
-1.44235e-06
-1.33153e-05
-1.43046e-06
-1.27954e-05
-1.33918e-06
-1.23267e-05
-1.11597e-06
-1.19901e-05
-7.14758e-07
-1.20046e-05
-6.75115e-08
-1.24941e-05
7.51386e-07
-1.37487e-05
2.14141e-06
-1.62564e-05
4.71854e-06
-2.09976e-05
1.00001e-05
2.48653e-05
-3.13289e-05
-3.97548e-05
7.01113e-08
-3.97621e-05
3.15387e-08
-3.97697e-05
2.56842e-08
-3.97788e-05
2.54528e-08
-3.97855e-05
1.9878e-08
-3.97914e-05
1.74781e-08
-3.97978e-05
1.80828e-08
-3.98027e-05
1.55811e-08
-3.9807e-05
1.48675e-08
-3.98109e-05
1.443e-08
-3.98126e-05
1.00232e-08
-3.98146e-05
9.40133e-09
-3.98145e-05
3.12424e-09
-3.9809e-05
-9.93364e-09
-3.98022e-05
-1.38769e-08
-3.97974e-05
-1.1306e-08
-3.9792e-05
-1.30905e-08
-3.97857e-05
-1.5227e-08
-3.9781e-05
-1.30341e-08
-3.97749e-05
-1.62602e-08
-3.97677e-05
-1.89461e-08
-3.97622e-05
-1.66114e-08
-3.97555e-05
-1.85812e-08
-3.97476e-05
-2.04312e-08
-3.97402e-05
-1.97748e-08
-3.97319e-05
-2.18574e-08
-3.97211e-05
-2.67398e-08
-3.97077e-05
-3.25724e-08
-3.96932e-05
-3.63891e-08
-3.96733e-05
-5.07606e-08
-3.96419e-05
-7.73684e-08
-3.96017e-05
-9.96369e-08
-3.95574e-05
-1.14217e-07
-3.95033e-05
-1.40655e-07
-3.94378e-05
-1.72008e-07
-3.93597e-05
-2.0751e-07
-3.92683e-05
-2.46014e-07
-3.91631e-05
-2.8835e-07
-3.90392e-05
-3.4135e-07
-3.8901e-05
-3.87128e-07
-3.8749e-05
-4.33731e-07
-3.85819e-05
-4.85923e-07
-3.83991e-05
-5.42534e-07
-3.81995e-05
-6.0396e-07
-3.79822e-05
-6.69622e-07
-3.77467e-05
-7.38831e-07
-3.74927e-05
-8.10756e-07
-3.72207e-05
-8.84233e-07
-3.69316e-05
-9.57956e-07
-3.66266e-05
-1.03082e-06
-3.63071e-05
-1.10194e-06
-3.59747e-05
-1.17041e-06
-3.56312e-05
-1.23538e-06
-3.52783e-05
-1.29591e-06
-3.49176e-05
-1.35131e-06
-3.45509e-05
-1.40136e-06
-3.41795e-05
-1.44589e-06
-3.3805e-05
-1.48487e-06
-3.34288e-05
-1.51822e-06
-3.30523e-05
-1.54598e-06
-3.26768e-05
-1.56852e-06
-3.23031e-05
-1.58624e-06
-3.1932e-05
-1.59948e-06
-3.15643e-05
-1.60839e-06
-3.12004e-05
-1.61308e-06
-3.08411e-05
-1.61365e-06
-3.0487e-05
-1.61031e-06
-3.01389e-05
-1.60333e-06
-2.97977e-05
-1.59314e-06
-2.94643e-05
-1.58021e-06
-2.91398e-05
-1.565e-06
-2.88252e-05
-1.54792e-06
-2.85215e-05
-1.52938e-06
-2.82295e-05
-1.50962e-06
-2.795e-05
-1.48894e-06
-2.76838e-05
-1.46787e-06
-2.74315e-05
-1.44684e-06
-2.7194e-05
-1.42616e-06
-2.69721e-05
-1.40658e-06
-2.67665e-05
-1.38921e-06
-2.65774e-05
-1.37517e-06
-2.64045e-05
-1.36538e-06
-2.62473e-05
-1.36158e-06
-2.61052e-05
-1.3654e-06
-2.5977e-05
-1.37758e-06
-2.58615e-05
-1.39883e-06
-2.57582e-05
-1.42824e-06
-2.56664e-05
-1.46243e-06
-2.55862e-05
-1.49443e-06
-2.55194e-05
-1.50909e-06
-2.54695e-05
-1.48041e-06
-2.54402e-05
-1.36848e-06
-2.54401e-05
-1.11604e-06
-2.55013e-05
-6.53501e-07
-2.56577e-05
8.88878e-08
-2.60947e-05
1.18835e-06
-2.70062e-05
3.05293e-06
-2.87488e-05
6.46107e-06
-3.20034e-05
1.32547e-05
2.91117e-05
-3.62498e-05
-3.9864e-05
9.29783e-08
-3.98646e-05
3.21883e-08
-3.98726e-05
3.36459e-08
-3.988e-05
3.28797e-08
-3.98849e-05
2.47058e-08
-3.98912e-05
2.37975e-08
-3.98982e-05
2.51412e-08
-3.99019e-05
1.92564e-08
-3.99065e-05
1.94819e-08
-3.99091e-05
1.69863e-08
-3.99099e-05
1.07963e-08
-3.99128e-05
1.23709e-08
-3.99132e-05
3.55151e-09
-3.99078e-05
-1.53548e-08
-3.98987e-05
-2.30301e-08
-3.98944e-05
-1.55374e-08
-3.98895e-05
-1.80106e-08
-3.9886e-05
-1.87375e-08
-3.98822e-05
-1.68626e-08
-3.9874e-05
-2.44113e-08
-3.98687e-05
-2.43008e-08
-3.98656e-05
-1.97023e-08
-3.98597e-05
-2.44511e-08
-3.98518e-05
-2.83506e-08
-3.98479e-05
-2.36296e-08
-3.98448e-05
-2.50122e-08
-3.98378e-05
-3.36862e-08
-3.98283e-05
-4.21533e-08
-3.98218e-05
-4.28605e-08
-3.98106e-05
-6.19339e-08
-3.97895e-05
-9.8509e-08
-3.97661e-05
-1.22985e-07
-3.97446e-05
-1.35759e-07
-3.97155e-05
-1.69709e-07
-3.96806e-05
-2.06925e-07
-3.96424e-05
-2.45694e-07
-3.95957e-05
-2.92726e-07
-3.95416e-05
-3.42435e-07
-3.94756e-05
-4.07351e-07
-3.93996e-05
-4.63118e-07
-3.93152e-05
-5.18176e-07
-3.92218e-05
-5.79288e-07
-3.91194e-05
-6.45013e-07
-3.90077e-05
-7.15656e-07
-3.88865e-05
-7.90785e-07
-3.87557e-05
-8.69651e-07
-3.86152e-05
-9.51184e-07
-3.84657e-05
-1.03382e-06
-3.83077e-05
-1.11588e-06
-3.81425e-05
-1.19609e-06
-3.79711e-05
-1.27334e-06
-3.7795e-05
-1.34651e-06
-3.76155e-05
-1.41483e-06
-3.74341e-05
-1.47731e-06
-3.7252e-05
-1.53339e-06
-3.70703e-05
-1.58312e-06
-3.68898e-05
-1.62639e-06
-3.67114e-05
-1.66322e-06
-3.65362e-05
-1.69344e-06
-3.63652e-05
-1.717e-06
-3.61994e-05
-1.7343e-06
-3.60397e-05
-1.74593e-06
-3.58868e-05
-1.75241e-06
-3.5741e-05
-1.75421e-06
-3.56024e-05
-1.7516e-06
-3.54714e-05
-1.74473e-06
-3.5348e-05
-1.7337e-06
-3.52326e-05
-1.71871e-06
-3.51257e-05
-1.70005e-06
-3.50279e-05
-1.67796e-06
-3.49402e-05
-1.6527e-06
-3.48635e-05
-1.62467e-06
-3.47985e-05
-1.59437e-06
-3.47461e-05
-1.56201e-06
-3.47072e-05
-1.52781e-06
-3.46828e-05
-1.49233e-06
-3.46734e-05
-1.45624e-06
-3.46794e-05
-1.42011e-06
-3.47012e-05
-1.38486e-06
-3.47386e-05
-1.35173e-06
-3.47916e-05
-1.32216e-06
-3.48593e-05
-1.29776e-06
-3.49408e-05
-1.2801e-06
-3.50357e-05
-1.2705e-06
-3.5143e-05
-1.27029e-06
-3.52609e-05
-1.28087e-06
-3.53876e-05
-1.30151e-06
-3.55219e-05
-1.32813e-06
-3.56634e-05
-1.35299e-06
-3.58112e-05
-1.36122e-06
-3.5964e-05
-1.32769e-06
-3.61178e-05
-1.21461e-06
-3.62685e-05
-9.65351e-07
-3.64137e-05
-5.0836e-07
-3.6556e-05
2.31211e-07
-3.68059e-05
1.43824e-06
-3.7292e-05
3.53906e-06
-3.81727e-05
7.34174e-06
-3.96135e-05
1.46956e-05
2.9034e-05
-3.95358e-05
-3.98494e-05
7.53681e-08
-3.98494e-05
3.21678e-08
-3.98582e-05
4.2392e-08
-3.98533e-05
2.80408e-08
-3.98589e-05
3.033e-08
-3.98673e-05
3.21467e-08
-3.98682e-05
2.6005e-08
-3.9875e-05
2.61059e-08
-3.98817e-05
2.62224e-08
-3.98842e-05
1.94101e-08
-3.98854e-05
1.20632e-08
-3.98812e-05
8.17046e-09
-3.98832e-05
5.46937e-09
-3.98864e-05
-1.20701e-08
-3.98732e-05
-3.63124e-08
-3.98663e-05
-2.23643e-08
-3.98653e-05
-1.90689e-08
-3.9866e-05
-1.80481e-08
-3.98657e-05
-1.7093e-08
-3.9855e-05
-3.51511e-08
-3.98491e-05
-3.02001e-08
-3.98451e-05
-2.37061e-08
-3.98427e-05
-2.68062e-08
-3.9838e-05
-3.30725e-08
-3.98334e-05
-2.8247e-08
-3.98351e-05
-2.32997e-08
-3.98293e-05
-3.94629e-08
-3.98252e-05
-4.62424e-08
-3.98224e-05
-4.57213e-08
-3.98151e-05
-6.92046e-08
-3.98097e-05
-1.03882e-07
-3.9808e-05
-1.24732e-07
-3.98005e-05
-1.4323e-07
-3.97957e-05
-1.7457e-07
-3.97936e-05
-2.09023e-07
-3.97896e-05
-2.49641e-07
-3.97873e-05
-2.95008e-07
-3.97818e-05
-3.47924e-07
-3.97764e-05
-4.12743e-07
-3.97667e-05
-4.72822e-07
-3.9753e-05
-5.31894e-07
-3.97363e-05
-5.96037e-07
-3.97169e-05
-6.64385e-07
-3.96953e-05
-7.37215e-07
-3.96718e-05
-8.14305e-07
-3.96464e-05
-8.95034e-07
-3.96194e-05
-9.78255e-07
-3.95912e-05
-1.06204e-06
-3.95626e-05
-1.14446e-06
-3.95344e-05
-1.22423e-06
-3.95076e-05
-1.30017e-06
-3.94832e-05
-1.37088e-06
-3.94624e-05
-1.43568e-06
-3.94458e-05
-1.49386e-06
-3.94345e-05
-1.54468e-06
-3.94296e-05
-1.58805e-06
-3.94319e-05
-1.62409e-06
-3.9442e-05
-1.65313e-06
-3.946e-05
-1.67542e-06
-3.94859e-05
-1.69111e-06
-3.95196e-05
-1.70059e-06
-3.95611e-05
-1.70441e-06
-3.96104e-05
-1.70316e-06
-3.96673e-05
-1.69731e-06
-3.97317e-05
-1.68716e-06
-3.98036e-05
-1.67285e-06
-3.98828e-05
-1.65448e-06
-3.99694e-05
-1.63216e-06
-4.00633e-05
-1.60609e-06
-4.01648e-05
-1.57645e-06
-4.02741e-05
-1.54343e-06
-4.03915e-05
-1.5073e-06
-4.05173e-05
-1.46852e-06
-4.06518e-05
-1.42751e-06
-4.07951e-05
-1.38452e-06
-4.09474e-05
-1.34e-06
-4.1109e-05
-1.2947e-06
-4.12796e-05
-1.24952e-06
-4.14588e-05
-1.20559e-06
-4.16465e-05
-1.1641e-06
-4.18421e-05
-1.12651e-06
-4.2045e-05
-1.09486e-06
-4.22541e-05
-1.071e-06
-4.24684e-05
-1.05623e-06
-4.26866e-05
-1.05203e-06
-4.29077e-05
-1.05978e-06
-4.31307e-05
-1.07858e-06
-4.33542e-05
-1.10455e-06
-4.35771e-05
-1.13013e-06
-4.37973e-05
-1.14107e-06
-4.40105e-05
-1.11442e-06
-4.42084e-05
-1.01676e-06
-4.43755e-05
-7.98256e-07
-4.44915e-05
-3.92373e-07
-4.45557e-05
2.95409e-07
-4.4601e-05
1.48357e-06
-4.46468e-05
3.58486e-06
-4.46904e-05
7.38532e-06
-4.44162e-05
1.44214e-05
2.6236e-05
-4.16183e-05
-3.98078e-05
2.70217e-08
-3.9808e-05
3.23543e-08
-3.98065e-05
4.09187e-08
-3.98023e-05
2.38109e-08
-3.98095e-05
3.7468e-08
-3.98101e-05
3.27465e-08
-3.98074e-05
2.33817e-08
-3.98246e-05
4.32677e-08
-3.98327e-05
3.43639e-08
-3.98283e-05
1.50122e-08
-3.98251e-05
8.78334e-09
-3.98195e-05
2.57676e-09
-3.98219e-05
7.89307e-09
-3.9828e-05
-5.91766e-09
-3.98264e-05
-3.79945e-08
-3.98176e-05
-3.1085e-08
-3.98164e-05
-2.03448e-08
-3.98119e-05
-2.2484e-08
-3.98062e-05
-2.28379e-08
-3.98118e-05
-2.95219e-08
-3.98088e-05
-3.31896e-08
-3.97996e-05
-3.29621e-08
-3.97975e-05
-2.89101e-08
-3.98e-05
-3.05669e-08
-3.9799e-05
-2.92084e-08
-3.97955e-05
-2.68026e-08
-3.97966e-05
-3.83909e-08
-3.98055e-05
-3.73031e-08
-3.9798e-05
-5.32084e-08
-3.97965e-05
-7.07119e-08
-3.98165e-05
-8.38523e-08
-3.9831e-05
-1.10265e-07
-3.98306e-05
-1.43661e-07
-3.98464e-05
-1.58712e-07
-3.98713e-05
-1.84142e-07
-3.98914e-05
-2.29573e-07
-3.99252e-05
-2.61207e-07
-3.996e-05
-3.13098e-07
-4.00034e-05
-3.6939e-07
-4.0051e-05
-4.25198e-07
-4.00989e-05
-4.84026e-07
-4.01494e-05
-5.45523e-07
-4.02038e-05
-6.09944e-07
-4.02628e-05
-6.78255e-07
-4.03268e-05
-7.5023e-07
-4.03964e-05
-8.25486e-07
-4.04716e-05
-9.03084e-07
-4.05528e-05
-9.80803e-07
-4.06406e-05
-1.05672e-06
-4.07354e-05
-1.12935e-06
-4.08381e-05
-1.19748e-06
-4.09491e-05
-1.25986e-06
-4.10696e-05
-1.31525e-06
-4.12003e-05
-1.36314e-06
-4.13416e-05
-1.40339e-06
-4.14936e-05
-1.43603e-06
-4.16562e-05
-1.46146e-06
-4.18292e-05
-1.48018e-06
-4.20119e-05
-1.49266e-06
-4.22037e-05
-1.49936e-06
-4.24036e-05
-1.50067e-06
-4.26109e-05
-1.49707e-06
-4.2825e-05
-1.48909e-06
-4.30451e-05
-1.47721e-06
-4.32706e-05
-1.46171e-06
-4.35007e-05
-1.44268e-06
-4.3735e-05
-1.4202e-06
-4.39728e-05
-1.39437e-06
-4.42136e-05
-1.36527e-06
-4.44571e-05
-1.333e-06
-4.47028e-05
-1.29768e-06
-4.49506e-05
-1.25953e-06
-4.52003e-05
-1.21882e-06
-4.54519e-05
-1.17588e-06
-4.57053e-05
-1.13117e-06
-4.59601e-05
-1.08515e-06
-4.62164e-05
-1.03843e-06
-4.6474e-05
-9.91967e-07
-4.67326e-05
-9.46985e-07
-4.69919e-05
-9.04713e-07
-4.72518e-05
-8.66688e-07
-4.75116e-05
-8.35061e-07
-4.77709e-05
-8.11706e-07
-4.80292e-05
-7.97937e-07
-4.8286e-05
-7.95192e-07
-4.8541e-05
-8.04782e-07
-4.87936e-05
-8.25982e-07
-4.90429e-05
-8.55247e-07
-4.92873e-05
-8.85726e-07
-4.95237e-05
-9.0465e-07
-4.97457e-05
-8.92437e-07
-4.99415e-05
-8.20984e-07
-5.0088e-05
-6.5167e-07
-5.01568e-05
-3.23575e-07
-5.01283e-05
2.66819e-07
-4.99734e-05
1.32871e-06
-4.96191e-05
3.23056e-06
-4.8905e-05
6.67121e-06
-4.72452e-05
1.27616e-05
2.18113e-05
-4.28205e-05
-3.97576e-05
4.82828e-08
-3.97501e-05
2.48645e-08
-3.97381e-05
2.88827e-08
-3.97544e-05
4.01554e-08
-3.97486e-05
3.16672e-08
-3.97469e-05
3.10154e-08
-3.97593e-05
3.57728e-08
-3.97741e-05
5.81134e-08
-3.97677e-05
2.79054e-08
-3.97517e-05
-1.02525e-09
-3.97568e-05
1.39649e-08
-3.9775e-05
2.07095e-08
-3.97667e-05
-3.50193e-10
-3.97549e-05
-1.76922e-08
-3.97735e-05
-1.94207e-08
-3.97743e-05
-3.02653e-08
-3.976e-05
-3.47086e-08
-3.97505e-05
-3.19118e-08
-3.97405e-05
-3.28521e-08
-3.97582e-05
-1.18732e-08
-3.97723e-05
-1.91162e-08
-3.97569e-05
-4.82791e-08
-3.97384e-05
-4.74881e-08
-3.97571e-05
-1.1862e-08
-3.97675e-05
-1.88207e-08
-3.97503e-05
-4.39802e-08
-3.97687e-05
-1.99882e-08
-3.97857e-05
-2.03298e-08
-3.97833e-05
-5.55677e-08
-3.97921e-05
-6.1925e-08
-3.98174e-05
-5.85756e-08
-3.9848e-05
-7.96329e-08
-3.98784e-05
-1.13261e-07
-3.99051e-05
-1.31958e-07
-3.99404e-05
-1.48895e-07
-3.99903e-05
-1.7966e-07
-4.00454e-05
-2.06128e-07
-4.01073e-05
-2.51155e-07
-4.01827e-05
-2.94008e-07
-4.027e-05
-3.3789e-07
-4.03644e-05
-3.89631e-07
-4.04673e-05
-4.42595e-07
-4.05803e-05
-4.96943e-07
-4.07041e-05
-5.54536e-07
-4.08394e-05
-6.1488e-07
-4.09869e-05
-6.77973e-07
-4.11465e-05
-7.43461e-07
-4.13184e-05
-8.08949e-07
-4.15031e-05
-8.72054e-07
-4.17012e-05
-9.31178e-07
-4.19135e-05
-9.85173e-07
-4.214e-05
-1.03342e-06
-4.23803e-05
-1.07492e-06
-4.26342e-05
-1.10928e-06
-4.29008e-05
-1.1368e-06
-4.31789e-05
-1.1579e-06
-4.34673e-05
-1.17301e-06
-4.37651e-05
-1.18246e-06
-4.40711e-05
-1.18658e-06
-4.43847e-05
-1.18584e-06
-4.47045e-05
-1.18081e-06
-4.50295e-05
-1.17205e-06
-4.53585e-05
-1.16012e-06
-4.56903e-05
-1.14544e-06
-4.60238e-05
-1.12818e-06
-4.63581e-05
-1.10837e-06
-4.66923e-05
-1.08604e-06
-4.70253e-05
-1.06132e-06
-4.73563e-05
-1.03426e-06
-4.76846e-05
-1.00478e-06
-4.80094e-05
-9.72832e-07
-4.83304e-05
-9.3858e-07
-4.8647e-05
-9.02168e-07
-4.89591e-05
-8.63762e-07
-4.92665e-05
-8.23757e-07
-4.95691e-05
-7.82627e-07
-4.98666e-05
-7.40873e-07
-5.01593e-05
-6.99324e-07
-5.04471e-05
-6.59117e-07
-5.07304e-05
-6.21409e-07
-5.10094e-05
-5.87724e-07
-5.12843e-05
-5.60198e-07
-5.15555e-05
-5.40514e-07
-5.18234e-05
-5.30003e-07
-5.20885e-05
-5.30077e-07
-5.2351e-05
-5.4232e-07
-5.26101e-05
-5.66878e-07
-5.28651e-05
-6.00227e-07
-5.31139e-05
-6.36943e-07
-5.33518e-05
-6.66695e-07
-5.35704e-05
-6.7387e-07
-5.37552e-05
-6.36193e-07
-5.388e-05
-5.26845e-07
-5.3908e-05
-2.95629e-07
-5.3796e-05
1.5484e-07
-5.34688e-05
1.00151e-06
-5.27765e-05
2.53831e-06
-5.14304e-05
5.32507e-06
-4.87503e-05
1.00815e-05
1.6482e-05
-4.34209e-05
-3.97229e-05
7.46879e-08
-3.97243e-05
2.63443e-08
-3.97086e-05
1.3168e-08
-3.9712e-05
4.35852e-08
-3.97194e-05
3.90019e-08
-3.97261e-05
3.77241e-08
-3.97331e-05
4.27676e-08
-3.97171e-05
4.216e-08
-3.97016e-05
1.24084e-08
-3.9709e-05
6.29104e-09
-3.97261e-05
3.10715e-08
-3.97264e-05
2.10533e-08
-3.97168e-05
-9.99306e-09
-3.97195e-05
-1.49635e-08
-3.97283e-05
-1.0573e-08
-3.97388e-05
-1.97701e-08
-3.97312e-05
-4.23178e-08
-3.97239e-05
-3.92432e-08
-3.97258e-05
-3.09575e-08
-3.9718e-05
-1.96637e-08
-3.9725e-05
-1.21358e-08
-3.97208e-05
-5.24502e-08
-3.97214e-05
-4.69242e-08
-3.97351e-05
1.89094e-09
-3.97349e-05
-1.90787e-08
-3.97331e-05
-4.57218e-08
-3.97495e-05
-3.64063e-09
-3.97716e-05
1.77129e-09
-3.98012e-05
-2.59152e-08
-3.98248e-05
-3.83866e-08
-3.98406e-05
-4.26891e-08
-3.98757e-05
-4.45828e-08
-3.99277e-05
-6.12169e-08
-3.99725e-05
-8.72114e-08
-4.00176e-05
-1.03776e-07
-4.0082e-05
-1.15272e-07
-4.01497e-05
-1.38425e-07
-4.02297e-05
-1.71164e-07
-4.03262e-05
-1.97508e-07
-4.0436e-05
-2.28117e-07
-4.05601e-05
-2.65539e-07
-4.06982e-05
-3.0442e-07
-4.08518e-05
-3.43341e-07
-4.10218e-05
-3.84537e-07
-4.12092e-05
-4.27481e-07
-4.14145e-05
-4.72697e-07
-4.16375e-05
-5.20465e-07
-4.18786e-05
-5.67808e-07
-4.2139e-05
-6.11703e-07
-4.24185e-05
-6.51712e-07
-4.27161e-05
-6.87537e-07
-4.30308e-05
-7.18705e-07
-4.3361e-05
-7.44768e-07
-4.37047e-05
-7.65563e-07
-4.40601e-05
-7.81343e-07
-4.44256e-05
-7.92461e-07
-4.47993e-05
-7.99257e-07
-4.51798e-05
-8.01967e-07
-4.55656e-05
-8.00838e-07
-4.59551e-05
-7.96276e-07
-4.63471e-05
-7.88807e-07
-4.67402e-05
-7.78986e-07
-4.7133e-05
-7.67293e-07
-4.75245e-05
-7.53992e-07
-4.79135e-05
-7.39104e-07
-4.82993e-05
-7.22563e-07
-4.8681e-05
-7.04394e-07
-4.90577e-05
-6.8466e-07
-4.94287e-05
-6.63272e-07
-4.97934e-05
-6.40018e-07
-5.01515e-05
-6.14779e-07
-5.05024e-05
-5.87608e-07
-5.0846e-05
-5.58567e-07
-5.11821e-05
-5.27699e-07
-5.15106e-05
-4.95225e-07
-5.18317e-05
-4.61525e-07
-5.21455e-05
-4.27085e-07
-5.24522e-05
-3.92626e-07
-5.27522e-05
-3.59118e-07
-5.3046e-05
-3.27588e-07
-5.33343e-05
-2.99493e-07
-5.36174e-05
-2.77087e-07
-5.38959e-05
-2.61979e-07
-5.41706e-05
-2.55364e-07
-5.4442e-05
-2.58594e-07
-5.47108e-05
-2.73577e-07
-5.49754e-05
-3.02304e-07
-5.52351e-05
-3.40444e-07
-5.54871e-05
-3.85031e-07
-5.57254e-05
-4.28376e-07
-5.59402e-05
-4.59016e-07
-5.61149e-05
-4.61535e-07
-5.62241e-05
-4.17632e-07
-5.62216e-05
-2.98079e-07
-5.60434e-05
-2.33596e-08
-5.55815e-05
5.39523e-07
-5.4628e-05
1.58481e-06
-5.28029e-05
3.50002e-06
-4.94283e-05
6.70693e-06
1.07088e-05
-4.36552e-05
-3.97077e-05
7.88027e-08
-3.97159e-05
3.4558e-08
-3.97071e-05
4.37861e-09
-3.96978e-05
3.42966e-08
-3.97068e-05
4.80229e-08
-3.97119e-05
4.28466e-08
-3.97127e-05
4.34921e-08
-3.96799e-05
9.43829e-09
-3.96763e-05
8.73282e-09
-3.9709e-05
3.9073e-08
-3.97024e-05
2.44715e-08
-3.96902e-05
8.78286e-09
-3.96981e-05
-2.04531e-09
-3.97074e-05
-5.66354e-09
-3.97041e-05
-1.39258e-08
-3.9708e-05
-1.58673e-08
-3.97153e-05
-3.50183e-08
-3.96999e-05
-5.46676e-08
-3.9703e-05
-2.77756e-08
-3.97151e-05
-7.59056e-09
-3.97024e-05
-2.48768e-08
-3.97121e-05
-4.27152e-08
-3.97336e-05
-2.54065e-08
-3.97139e-05
-1.77973e-08
-3.97185e-05
-1.45588e-08
-3.97512e-05
-1.30165e-08
-3.97532e-05
-1.57276e-09
-3.9782e-05
3.05117e-08
-3.98255e-05
1.75778e-08
-3.98474e-05
-1.64124e-08
-3.98758e-05
-1.43568e-08
-3.99164e-05
-3.94737e-09
-3.99642e-05
-1.34331e-08
-4.00176e-05
-3.38014e-08
-4.0078e-05
-4.3407e-08
-4.01484e-05
-4.48161e-08
-4.0226e-05
-6.0867e-08
-4.03171e-05
-8.00294e-08
-4.04233e-05
-9.12687e-08
-4.05456e-05
-1.05831e-07
-4.06863e-05
-1.24873e-07
-4.08457e-05
-1.44974e-07
-4.10245e-05
-1.64619e-07
-4.12238e-05
-1.85185e-07
-4.14448e-05
-2.06488e-07
-4.16883e-05
-2.29221e-07
-4.19551e-05
-2.53648e-07
-4.22458e-05
-2.77126e-07
-4.25596e-05
-2.97939e-07
-4.28947e-05
-3.1659e-07
-4.32492e-05
-3.33045e-07
-4.36209e-05
-3.46997e-07
-4.40074e-05
-3.58246e-07
-4.44062e-05
-3.66772e-07
-4.48148e-05
-3.72729e-07
-4.52309e-05
-3.76327e-07
-4.56524e-05
-3.7776e-07
-4.60772e-05
-3.77163e-07
-4.65034e-05
-3.74666e-07
-4.69292e-05
-3.70475e-07
-4.73532e-05
-3.64857e-07
-4.77741e-05
-3.58083e-07
-4.8191e-05
-3.50354e-07
-4.86033e-05
-3.41738e-07
-4.90102e-05
-3.32159e-07
-4.94113e-05
-3.21503e-07
-4.98059e-05
-3.09708e-07
-5.01939e-05
-2.96718e-07
-5.05748e-05
-2.82347e-07
-5.09485e-05
-2.66376e-07
-5.13145e-05
-2.48695e-07
-5.16729e-05
-2.29268e-07
-5.20234e-05
-2.08049e-07
-5.23661e-05
-1.85028e-07
-5.27009e-05
-1.60348e-07
-5.30282e-05
-1.34289e-07
-5.3348e-05
-1.07271e-07
-5.36607e-05
-7.99182e-08
-5.39668e-05
-5.30484e-08
-5.42667e-05
-2.7679e-08
-5.45611e-05
-5.10972e-09
-5.48508e-05
1.26352e-08
-5.51363e-05
2.35105e-08
-5.54184e-05
2.67649e-08
-5.56973e-05
2.02773e-08
-5.59744e-05
3.52231e-09
-5.62468e-05
-2.9914e-08
-5.65145e-05
-7.27484e-08
-5.67733e-05
-1.26208e-07
-5.70168e-05
-1.84881e-07
-5.72341e-05
-2.41729e-07
-5.74077e-05
-2.87874e-07
-5.75113e-05
-3.14015e-07
-5.74997e-05
-3.09687e-07
-5.72929e-05
-2.30199e-07
-5.67464e-05
-6.93478e-09
-5.56299e-05
4.68311e-07
-5.35007e-05
1.37074e-06
-4.96989e-05
2.90516e-06
4.73973e-06
-4.37298e-05
-3.96967e-05
9.03895e-08
-3.97048e-05
4.26425e-08
-3.97276e-05
2.71615e-08
-3.97034e-05
1.01061e-08
-3.96739e-05
1.85104e-08
-3.96886e-05
5.76284e-08
-3.9691e-05
4.58606e-08
-3.96813e-05
-3.09213e-10
-3.96809e-05
8.33439e-09
-3.96868e-05
4.49767e-08
-3.96902e-05
2.7857e-08
-3.96859e-05
4.51343e-09
-3.96931e-05
5.15558e-09
-3.96891e-05
-9.66707e-09
-3.96936e-05
-9.43141e-09
-3.96796e-05
-2.98538e-08
-3.96839e-05
-3.07369e-08
-3.97079e-05
-3.06088e-08
-3.97106e-05
-2.51465e-08
-3.96987e-05
-1.949e-08
-3.96966e-05
-2.69004e-08
-3.97186e-05
-2.07783e-08
-3.97221e-05
-2.18959e-08
-3.97189e-05
-2.09991e-08
-3.97256e-05
-7.88713e-09
-3.97561e-05
1.75123e-08
-3.97806e-05
2.29532e-08
-3.97915e-05
4.13901e-08
-3.98191e-05
4.52146e-08
-3.98584e-05
2.28149e-08
-3.98978e-05
2.50598e-08
-3.99337e-05
3.20265e-08
-3.99791e-05
3.19366e-08
-4.00378e-05
2.49337e-08
-4.01063e-05
2.50471e-08
-4.01802e-05
2.90476e-08
-4.0262e-05
2.09924e-08
-4.03596e-05
1.75641e-08
-4.04684e-05
1.75416e-08
-4.05952e-05
2.0889e-08
-4.07434e-05
2.33486e-08
-4.0913e-05
2.46979e-08
-4.11042e-05
2.65167e-08
-4.13182e-05
2.88367e-08
-4.15562e-05
3.14676e-08
-4.18199e-05
3.45686e-08
-4.21117e-05
3.81527e-08
-4.24305e-05
4.16537e-08
-4.27734e-05
4.49171e-08
-4.31381e-05
4.80973e-08
-4.35222e-05
5.11061e-08
-4.39231e-05
5.3868e-08
-4.43377e-05
5.63405e-08
-4.47629e-05
5.84863e-08
-4.5196e-05
6.03204e-08
-4.56342e-05
6.18865e-08
-4.60752e-05
6.32244e-08
-4.65167e-05
6.43746e-08
-4.69568e-05
6.53965e-08
-4.73936e-05
6.63803e-08
-4.7826e-05
6.74599e-08
-4.82528e-05
6.87954e-08
-4.86737e-05
7.05377e-08
-4.90883e-05
7.28249e-08
-4.94962e-05
7.57899e-08
-4.98973e-05
7.95702e-08
-5.02913e-05
8.43233e-08
-5.06783e-05
9.02263e-08
-5.10581e-05
9.74823e-08
-5.14307e-05
1.06251e-07
-5.1796e-05
1.16612e-07
-5.2154e-05
1.28655e-07
-5.25045e-05
1.42497e-07
-5.28477e-05
1.58168e-07
-5.31836e-05
1.75557e-07
-5.35124e-05
1.9447e-07
-5.38342e-05
2.14586e-07
-5.41495e-05
2.3539e-07
-5.44588e-05
2.56182e-07
-5.47624e-05
2.75941e-07
-5.5061e-05
2.93465e-07
-5.53554e-05
3.07113e-07
-5.56471e-05
3.15172e-07
-5.59364e-05
3.16049e-07
-5.62236e-05
3.07526e-07
-5.65076e-05
2.87496e-07
-5.67903e-05
2.52811e-07
-5.70677e-05
2.04627e-07
-5.73357e-05
1.41733e-07
-5.75859e-05
6.53467e-08
-5.78077e-05
-1.99576e-08
-5.7986e-05
-1.09482e-07
-5.8092e-05
-2.08041e-07
-5.80825e-05
-3.19184e-07
-5.78722e-05
-4.40522e-07
-5.73102e-05
-5.68893e-07
-5.61308e-05
-7.11127e-07
-5.38717e-05
-8.88351e-07
-4.98619e-05
-1.10466e-06
-1.30622e-06
-4.38159e-05
-3.97277e-05
1.12767e-07
-3.9711e-05
2.60049e-08
-3.97169e-05
3.30288e-08
-3.97172e-05
1.0378e-08
-3.97046e-05
5.95509e-09
-3.96718e-05
2.48442e-08
-3.9655e-05
2.90506e-08
-3.9682e-05
2.67243e-08
-3.97111e-05
3.74252e-08
-3.96902e-05
2.40226e-08
-3.96796e-05
1.72416e-08
-3.96947e-05
1.9662e-08
-3.9693e-05
3.39366e-09
-3.96955e-05
-7.07971e-09
-3.9697e-05
-7.99745e-09
-3.96816e-05
-4.51848e-08
-3.96772e-05
-3.51646e-08
-3.96997e-05
-8.15629e-09
-3.9709e-05
-1.58425e-08
-3.96916e-05
-3.69102e-08
-3.9689e-05
-2.94473e-08
-3.97052e-05
-4.6203e-09
-3.97158e-05
-1.12517e-08
-3.97246e-05
-1.22124e-08
-3.9742e-05
9.53644e-09
-3.97643e-05
3.97658e-08
-3.97827e-05
4.13694e-08
-3.97902e-05
4.88607e-08
-3.9809e-05
6.40418e-08
-3.98467e-05
6.05128e-08
-3.98886e-05
6.70214e-08
-3.99277e-05
7.11145e-08
-3.99738e-05
7.80494e-08
-4.00334e-05
8.45368e-08
-4.0099e-05
9.05982e-08
-4.01706e-05
1.00661e-07
-4.02531e-05
1.0348e-07
-4.03477e-05
1.12154e-07
-4.04559e-05
1.25798e-07
-4.05826e-05
1.47519e-07
-4.07296e-05
1.70415e-07
-4.08975e-05
1.92551e-07
-4.10865e-05
2.15482e-07
-4.12978e-05
2.40221e-07
-4.15327e-05
2.66295e-07
-4.17926e-05
2.94455e-07
-4.20795e-05
3.25102e-07
-4.23929e-05
3.5503e-07
-4.27301e-05
3.82119e-07
-4.30889e-05
4.06941e-07
-4.34672e-05
4.29355e-07
-4.38623e-05
4.48943e-07
-4.42713e-05
4.65424e-07
-4.46915e-05
4.7867e-07
-4.512e-05
4.88828e-07
-4.55543e-05
4.96151e-07
-4.59919e-05
5.00873e-07
-4.64307e-05
5.03177e-07
-4.68686e-05
5.0329e-07
-4.73038e-05
5.01581e-07
-4.77349e-05
4.98563e-07
-4.8161e-05
4.94802e-07
-4.85812e-05
4.90796e-07
-4.89953e-05
4.86889e-07
-4.94028e-05
4.83273e-07
-4.98033e-05
4.80113e-07
-5.01966e-05
4.77671e-07
-5.05827e-05
4.76252e-07
-5.09613e-05
4.76109e-07
-5.13324e-05
4.77377e-07
-5.16959e-05
4.80111e-07
-5.20517e-05
4.84453e-07
-5.23998e-05
4.9062e-07
-5.27404e-05
4.98685e-07
-5.30734e-05
5.08568e-07
-5.33991e-05
5.20159e-07
-5.37177e-05
5.33257e-07
-5.40298e-05
5.47455e-07
-5.43358e-05
5.62154e-07
-5.46363e-05
5.76487e-07
-5.49322e-05
5.89323e-07
-5.52242e-05
5.99144e-07
-5.55134e-05
6.04334e-07
-5.58003e-05
6.03025e-07
-5.60857e-05
5.9289e-07
-5.63693e-05
5.71098e-07
-5.66511e-05
5.34618e-07
-5.69281e-05
4.81643e-07
-5.71956e-05
4.09163e-07
-5.74449e-05
3.14685e-07
-5.76631e-05
1.98259e-07
-5.78352e-05
6.26126e-08
-5.79369e-05
-1.06329e-07
-5.79211e-05
-3.34966e-07
-5.77097e-05
-6.51924e-07
-5.71561e-05
-1.12256e-06
-5.59923e-05
-1.87491e-06
-5.37562e-05
-3.12447e-06
-4.97807e-05
-5.08015e-06
-7.32484e-06
-4.37621e-05
-3.97539e-05
3.51079e-08
-3.97253e-05
-2.53987e-09
-3.9707e-05
1.4725e-08
-3.9708e-05
1.13417e-08
-3.97125e-05
1.04841e-08
-3.96932e-05
5.55789e-09
-3.96806e-05
1.63999e-08
-3.9693e-05
3.91828e-08
-3.97018e-05
4.61554e-08
-3.96978e-05
2.0041e-08
-3.96939e-05
1.3331e-08
-3.9698e-05
2.38383e-08
-3.96908e-05
-3.83695e-09
-3.96973e-05
-6.45076e-10
-3.96994e-05
-5.82236e-09
-3.97052e-05
-3.94516e-08
-3.97135e-05
-2.68084e-08
-3.97016e-05
-2.00418e-08
-3.96945e-05
-2.29589e-08
-3.96975e-05
-3.39359e-08
-3.96963e-05
-3.05955e-08
-3.97075e-05
6.52826e-09
-3.97235e-05
4.80819e-09
-3.97304e-05
-5.3292e-09
-3.9736e-05
1.50807e-08
-3.97534e-05
5.72362e-08
-3.97725e-05
6.04245e-08
-3.97834e-05
5.97567e-08
-3.98041e-05
8.47558e-08
-3.9827e-05
8.3434e-08
-3.98581e-05
9.81158e-08
-3.99021e-05
1.15133e-07
-3.99461e-05
1.22043e-07
-3.99954e-05
1.33765e-07
-4.00509e-05
1.46113e-07
-4.01219e-05
1.717e-07
-4.02023e-05
1.83814e-07
-4.02849e-05
1.94789e-07
-4.03888e-05
2.29691e-07
-4.05096e-05
2.68307e-07
-4.0647e-05
3.07874e-07
-4.08028e-05
3.48313e-07
-4.09772e-05
3.89925e-07
-4.11715e-05
4.34464e-07
-4.13865e-05