/*--------------------------------*- C++ -*----------------------------------*\
| =========                 |                                                 |
| \\      /  F ield         | OpenFOAM: The Open Source CFD Toolbox           |
|  \\    /   O peration     | Version:  2.1.0                                 |
|   \\  /    A nd           | Web:      www.OpenFOAM.org                      |
|    \\/     M anipulation  |                                                 |
\*---------------------------------------------------------------------------*/
FoamFile
{
    version     2.0;
    format      ascii;
    class       volVectorField;
    location    "0.05";
    object      U;
}
// * * * * * * * * * * * * * * * * * * * * * * * * * * * * * * * * * * * * * //

dimensions      [0 1 -1 0 0 0 0];

internalField   nonuniform List<vector> 
6400
(
(-1.58766 0.000281548 0)
(-1.58838 0.000151847 0)
(-1.58897 0.000112684 0)
(-1.58939 9.97028e-05 0)
(-1.58976 8.23089e-05 0)
(-1.59006 7.30182e-05 0)
(-1.59035 7.30293e-05 0)
(-1.59064 6.87407e-05 0)
(-1.59091 6.89757e-05 0)
(-1.59118 6.82647e-05 0)
(-1.59143 5.67751e-05 0)
(-1.59164 4.96729e-05 0)
(-1.59179 2.47831e-05 0)
(-1.5918 -1.92604e-05 0)
(-1.5917 -3.20014e-05 0)
(-1.59157 -2.96733e-05 0)
(-1.59144 -3.64012e-05 0)
(-1.59129 -4.22399e-05 0)
(-1.59112 -4.05833e-05 0)
(-1.59094 -4.99494e-05 0)
(-1.59073 -5.77681e-05 0)
(-1.59051 -5.50768e-05 0)
(-1.59029 -5.52438e-05 0)
(-1.59008 -5.03604e-05 0)
(-1.5899 -4.15749e-05 0)
(-1.58974 -3.78051e-05 0)
(-1.58958 -3.93239e-05 0)
(-1.58942 -4.39184e-05 0)
(-1.58924 -4.53899e-05 0)
(-1.58901 -7.28382e-05 0)
(-1.5886 -0.000128761 0)
(-1.588 -0.00017623 0)
(-1.58724 -0.00020936 0)
(-1.58628 -0.000269615 0)
(-1.58505 -0.000348718 0)
(-1.58348 -0.000443738 0)
(-1.5815 -0.000552736 0)
(-1.57904 -0.000684869 0)
(-1.576 -0.000848242 0)
(-1.57233 -0.0010033 0)
(-1.56801 -0.0011702 0)
(-1.56298 -0.00136511 0)
(-1.55711 -0.001588 0)
(-1.5503 -0.00183907 0)
(-1.54244 -0.00211953 0)
(-1.53341 -0.00242978 0)
(-1.52308 -0.00276902 0)
(-1.51135 -0.00313459 0)
(-1.49813 -0.00352325 0)
(-1.48332 -0.00393124 0)
(-1.46686 -0.00435214 0)
(-1.44873 -0.0047775 0)
(-1.42891 -0.00519883 0)
(-1.40744 -0.00560808 0)
(-1.38438 -0.00599939 0)
(-1.35981 -0.00636967 0)
(-1.33381 -0.00671752 0)
(-1.30648 -0.00704249 0)
(-1.27791 -0.00734199 0)
(-1.24821 -0.00761363 0)
(-1.21749 -0.00785627 0)
(-1.18587 -0.00806871 0)
(-1.15348 -0.00825062 0)
(-1.12043 -0.00840325 0)
(-1.08683 -0.00852845 0)
(-1.05279 -0.00862772 0)
(-1.01842 -0.00870255 0)
(-0.983794 -0.00875544 0)
(-0.949006 -0.00879064 0)
(-0.914116 -0.00881216 0)
(-0.87917 -0.00882295 0)
(-0.844207 -0.00882591 0)
(-0.809252 -0.00882349 0)
(-0.774325 -0.00881642 0)
(-0.739444 -0.00880553 0)
(-0.704616 -0.00879366 0)
(-0.66984 -0.00878462 0)
(-0.635093 -0.00878291 0)
(-0.600334 -0.00879556 0)
(-0.565492 -0.00882985 0)
(-0.530473 -0.00888946 0)
(-0.495163 -0.00898171 0)
(-0.459404 -0.0091207 0)
(-0.423004 -0.00931222 0)
(-0.385753 -0.00955625 0)
(-0.347421 -0.00986459 0)
(-0.307745 -0.010244 0)
(-0.266495 -0.0106688 0)
(-0.223609 -0.0110809 0)
(-0.179366 -0.0113647 0)
(-0.134744 -0.0112801 0)
(-0.092037 -0.0103981 0)
(-0.0553699 -0.00821455 0)
(-0.0297254 -0.0047994 0)
(-0.0182145 -0.00104087 0)
(-0.0227193 0.00332467 0)
(-0.0515095 0.0112673 0)
(-0.129358 0.0281384 0)
(-0.318933 0.0671082 0)
(-0.897444 0.18637 0)
(-1.94066 0.000842542 0)
(-1.94139 0.000452679 0)
(-1.94199 0.00033794 0)
(-1.94243 0.000302332 0)
(-1.9428 0.000245711 0)
(-1.94311 0.000216712 0)
(-1.94341 0.000218342 0)
(-1.94368 0.000201701 0)
(-1.94394 0.000200532 0)
(-1.9442 0.000198269 0)
(-1.94442 0.000160486 0)
(-1.9446 0.000142056 0)
(-1.94473 6.47658e-05 0)
(-1.94468 -7.54731e-05 0)
(-1.94449 -0.000120013 0)
(-1.94428 -0.00011023 0)
(-1.94405 -0.000132703 0)
(-1.94379 -0.000152557 0)
(-1.94353 -0.000144707 0)
(-1.94324 -0.000176552 0)
(-1.94291 -0.000203103 0)
(-1.94256 -0.000193544 0)
(-1.94221 -0.000203577 0)
(-1.94181 -0.000205682 0)
(-1.94137 -0.000195975 0)
(-1.94087 -0.000206695 0)
(-1.94029 -0.00023902 0)
(-1.93958 -0.000282506 0)
(-1.93873 -0.00031952 0)
(-1.93764 -0.000457381 0)
(-1.93611 -0.000702577 0)
(-1.93408 -0.000917503 0)
(-1.93162 -0.00108238 0)
(-1.92865 -0.00134874 0)
(-1.92505 -0.00167721 0)
(-1.92072 -0.00205767 0)
(-1.9156 -0.00247993 0)
(-1.90961 -0.00296858 0)
(-1.90263 -0.00355833 0)
(-1.89465 -0.00410429 0)
(-1.88571 -0.00468072 0)
(-1.87572 -0.00533768 0)
(-1.8646 -0.00607045 0)
(-1.85232 -0.00687721 0)
(-1.83876 -0.00775469 0)
(-1.82391 -0.00869957 0)
(-1.80773 -0.00970583 0)
(-1.79023 -0.0107624 0)
(-1.77142 -0.0118561 0)
(-1.75136 -0.0129736 0)
(-1.73012 -0.0141008 0)
(-1.70775 -0.01522 0)
(-1.68432 -0.0163126 0)
(-1.65993 -0.0173597 0)
(-1.63465 -0.0183467 0)
(-1.6086 -0.0192657 0)
(-1.58187 -0.0201125 0)
(-1.55458 -0.0208854 0)
(-1.52685 -0.0215804 0)
(-1.49876 -0.0221952 0)
(-1.47042 -0.0227309 0)
(-1.44191 -0.0231885 0)
(-1.41328 -0.0235686 0)
(-1.38461 -0.0238731 0)
(-1.35597 -0.0241051 0)
(-1.32742 -0.024268 0)
(-1.29904 -0.0243657 0)
(-1.27087 -0.0244051 0)
(-1.24298 -0.0243971 0)
(-1.2154 -0.0243537 0)
(-1.18816 -0.0242841 0)
(-1.16127 -0.0241958 0)
(-1.13475 -0.0240955 0)
(-1.1086 -0.0239864 0)
(-1.0828 -0.0238724 0)
(-1.05735 -0.0237613 0)
(-1.03222 -0.0236623 0)
(-1.00739 -0.0235851 0)
(-0.982812 -0.0235472 0)
(-0.958444 -0.0235675 0)
(-0.934221 -0.0236558 0)
(-0.91007 -0.0238269 0)
(-0.885906 -0.0241146 0)
(-0.861615 -0.0245404 0)
(-0.837049 -0.0251087 0)
(-0.81206 -0.0258405 0)
(-0.786531 -0.0267369 0)
(-0.760393 -0.027731 0)
(-0.733659 -0.0286855 0)
(-0.706488 -0.0293202 0)
(-0.679285 -0.0290905 0)
(-0.652747 -0.0270813 0)
(-0.628047 -0.0221369 0)
(-0.607967 -0.0137357 0)
(-0.60035 -0.00186818 0)
(-0.612944 0.0127765 0)
(-0.656957 0.0381368 0)
(-0.7523 0.087164 0)
(-0.939457 0.191653 0)
(-1.39269 0.493057 0)
(-1.98719 0.00144245 0)
(-1.98785 0.000697502 0)
(-1.9883 0.000548175 0)
(-1.98871 0.000522567 0)
(-1.98911 0.000413131 0)
(-1.98942 0.000363517 0)
(-1.98973 0.000372585 0)
(-1.99001 0.000328967 0)
(-1.99024 0.000318608 0)
(-1.99045 0.000311583 0)
(-1.99058 0.000229943 0)
(-1.99068 0.000210743 0)
(-1.99073 7.93775e-05 0)
(-1.99058 -0.00018088 0)
(-1.99027 -0.000262038 0)
(-1.99 -0.000222519 0)
(-1.98973 -0.000260693 0)
(-1.98944 -0.000301502 0)
(-1.98917 -0.000267776 0)
(-1.98889 -0.000330614 0)
(-1.98856 -0.000383321 0)
(-1.98825 -0.000347162 0)
(-1.98794 -0.000381682 0)
(-1.98758 -0.000411776 0)
(-1.9872 -0.000402486 0)
(-1.9868 -0.00044298 0)
(-1.98632 -0.000534924 0)
(-1.98572 -0.000646889 0)
(-1.98503 -0.000730191 0)
(-1.98416 -0.00102087 0)
(-1.98287 -0.00154402 0)
(-1.98108 -0.00199092 0)
(-1.97898 -0.00230449 0)
(-1.97652 -0.00284233 0)
(-1.97334 -0.00348671 0)
(-1.97018 -0.00421372 0)
(-1.96546 -0.00501291 0)
(-1.96082 -0.00589703 0)
(-1.95509 -0.00698696 0)
(-1.9485 -0.00795134 0)
(-1.94125 -0.00894426 0)
(-1.93326 -0.0100599 0)
(-1.92448 -0.0112788 0)
(-1.91495 -0.0126043 0)
(-1.90454 -0.0140243 0)
(-1.89322 -0.0155266 0)
(-1.88098 -0.0170953 0)
(-1.86783 -0.0187075 0)
(-1.8538 -0.0203369 0)
(-1.83894 -0.0219602 0)
(-1.82334 -0.0235582 0)
(-1.80704 -0.0251105 0)
(-1.79015 -0.0265964 0)
(-1.77274 -0.027993 0)
(-1.7549 -0.0292831 0)
(-1.73672 -0.0304589 0)
(-1.71827 -0.0315158 0)
(-1.69962 -0.032452 0)
(-1.68085 -0.0332651 0)
(-1.66203 -0.0339558 0)
(-1.64322 -0.0345308 0)
(-1.62449 -0.0349978 0)
(-1.60588 -0.0353619 0)
(-1.58741 -0.0356259 0)
(-1.56912 -0.0357923 0)
(-1.55104 -0.0358641 0)
(-1.53321 -0.0358463 0)
(-1.51566 -0.0357468 0)
(-1.49842 -0.0355776 0)
(-1.48155 -0.0353524 0)
(-1.4651 -0.0350831 0)
(-1.44913 -0.0347797 0)
(-1.43367 -0.0344511 0)
(-1.41878 -0.034103 0)
(-1.40449 -0.0337421 0)
(-1.39085 -0.03338 0)
(-1.37788 -0.0330274 0)
(-1.36564 -0.0326935 0)
(-1.35416 -0.0323978 0)
(-1.34347 -0.0321662 0)
(-1.3336 -0.0320185 0)
(-1.32455 -0.0319739 0)
(-1.31631 -0.0320735 0)
(-1.30882 -0.0323535 0)
(-1.30206 -0.0328277 0)
(-1.29597 -0.0335144 0)
(-1.2905 -0.0343961 0)
(-1.28561 -0.0353892 0)
(-1.28131 -0.0363268 0)
(-1.27762 -0.0368544 0)
(-1.27467 -0.0363399 0)
(-1.27265 -0.0337946 0)
(-1.27189 -0.0278491 0)
(-1.27346 -0.0170586 0)
(-1.28024 0.000295251 0)
(-1.29468 0.0242777 0)
(-1.32917 0.0649545 0)
(-1.39754 0.139728 0)
(-1.52882 0.290423 0)
(-1.77761 0.672401 0)
(-1.99249 0.00203966 0)
(-1.99333 0.000796742 0)
(-1.99362 0.000741849 0)
(-1.99289 0.000729802 0)
(-1.99595 0.000557405 0)
(-1.99278 0.000516742 0)
(-1.99586 0.000540494 0)
(-1.99434 0.000436146 0)
(-1.99541 0.000430293 0)
(-1.9953 0.000392965 0)
(-1.99548 0.000260549 0)
(-1.99451 0.00027234 0)
(-1.99776 8.3437e-05 0)
(-1.99343 -0.000316719 0)
(-1.99722 -0.000461636 0)
(-1.99379 -0.000335779 0)
(-1.99439 -0.000389178 0)
(-1.99437 -0.000424803 0)
(-1.99372 -0.000373903 0)
(-1.99579 -0.000508392 0)
(-1.99241 -0.00054078 0)
(-1.99329 -0.000454269 0)
(-1.99324 -0.000538342 0)
(-1.99274 -0.0006112 0)
(-1.99251 -0.00054305 0)
(-1.99231 -0.000586484 0)
(-1.99206 -0.000755846 0)
(-1.99167 -0.000936115 0)
(-1.99127 -0.000991519 0)
(-1.99083 -0.00140928 0)
(-1.99001 -0.00220325 0)
(-1.98812 -0.00278515 0)
(-1.98865 -0.00312509 0)
(-1.98719 -0.00388066 0)
(-1.98211 -0.00473797 0)
(-1.98628 -0.005666 0)
(-1.97834 -0.00674006 0)
(-1.97935 -0.00788397 0)
(-1.97566 -0.00935796 0)
(-1.97182 -0.010628 0)
(-1.96794 -0.011898 0)
(-1.96346 -0.0133144 0)
(-1.95854 -0.0148436 0)
(-1.95319 -0.0164944 0)
(-1.94737 -0.0182543 0)
(-1.94106 -0.0201053 0)
(-1.93428 -0.0220236 0)
(-1.92703 -0.0239751 0)
(-1.91934 -0.0259225 0)
(-1.91126 -0.027836 0)
(-1.90285 -0.0296907 0)
(-1.89416 -0.0314615 0)
(-1.88527 -0.0331278 0)
(-1.87625 -0.0346652 0)
(-1.86716 -0.0360583 0)
(-1.85806 -0.0373048 0)
(-1.849 -0.0384018 0)
(-1.84003 -0.0393488 0)
(-1.83119 -0.0401429 0)
(-1.82253 -0.0407836 0)
(-1.81411 -0.0412807 0)
(-1.80597 -0.0416466 0)
(-1.79816 -0.0418921 0)
(-1.79069 -0.0420249 0)
(-1.78359 -0.0420498 0)
(-1.77685 -0.04197 0)
(-1.77049 -0.0417892 0)
(-1.76452 -0.0415135 0)
(-1.75896 -0.0411517 0)
(-1.75384 -0.0407129 0)
(-1.7492 -0.0402057 0)
(-1.74509 -0.0396406 0)
(-1.74155 -0.0390286 0)
(-1.73862 -0.0383755 0)
(-1.73634 -0.0376877 0)
(-1.73475 -0.0369789 0)
(-1.7339 -0.0362627 0)
(-1.73382 -0.0355502 0)
(-1.73452 -0.0348624 0)
(-1.736 -0.0342284 0)
(-1.73826 -0.0336801 0)
(-1.74128 -0.0332495 0)
(-1.74502 -0.0329777 0)
(-1.74942 -0.0329017 0)
(-1.75447 -0.0330472 0)
(-1.76012 -0.0334406 0)
(-1.76622 -0.0340614 0)
(-1.77273 -0.0348164 0)
(-1.77963 -0.0355221 0)
(-1.78682 -0.0358039 0)
(-1.79429 -0.0350238 0)
(-1.8019 -0.0322131 0)
(-1.80943 -0.0259511 0)
(-1.81709 -0.0144777 0)
(-1.82594 0.00401325 0)
(-1.83511 0.0328023 0)
(-1.85454 0.0822948 0)
(-1.89087 0.172259 0)
(-1.95292 0.348619 0)
(-2.04171 0.724658 0)
(-1.99267 0.00210068 0)
(-1.99226 0.000805305 0)
(-1.9945 0.000949452 0)
(-1.98893 0.000760471 0)
(-1.99935 0.000689244 0)
(-1.98605 0.000698713 0)
(-1.99989 0.000639891 0)
(-1.99082 0.000566577 0)
(-1.99112 0.000571466 0)
(-1.99756 0.000454235 0)
(-1.99144 0.000285362 0)
(-1.99266 0.000256214 0)
(-2.00185 0.000112753 0)
(-1.9856 -0.000342136 0)
(-2.00012 -0.000743118 0)
(-1.99189 -0.000472978 0)
(-1.99177 -0.000462869 0)
(-1.99354 -0.000460088 0)
(-1.99155 -0.000423814 0)
(-1.99834 -0.000745037 0)
(-1.99065 -0.000679954 0)
(-1.99106 -0.000541337 0)
(-1.99508 -0.000639802 0)
(-1.98747 -0.000768162 0)
(-1.99421 -0.000648444 0)
(-1.99033 -0.000602934 0)
(-1.99514 -0.000914277 0)
(-1.98687 -0.00110412 0)
(-1.99218 -0.00110525 0)
(-1.99496 -0.00163598 0)
(-1.98539 -0.00252562 0)
(-1.99007 -0.0030921 0)
(-1.9933 -0.00348737 0)
(-1.9909 -0.00429996 0)
(-1.98459 -0.00518589 0)
(-1.99672 -0.00619458 0)
(-1.98175 -0.00733858 0)
(-1.99269 -0.008625 0)
(-1.98948 -0.0102507 0)
(-1.98821 -0.0116982 0)
(-1.98827 -0.0131243 0)
(-1.98729 -0.0146906 0)
(-1.98638 -0.0163664 0)
(-1.98535 -0.0181596 0)
(-1.98421 -0.020062 0)
(-1.98298 -0.0220566 0)
(-1.98167 -0.0241156 0)
(-1.98028 -0.0261953 0)
(-1.97886 -0.0282507 0)
(-1.97745 -0.03025 0)
(-1.97608 -0.0321643 0)
(-1.9748 -0.0339616 0)
(-1.97365 -0.035624 0)
(-1.97271 -0.0371303 0)
(-1.97202 -0.0384648 0)
(-1.97161 -0.0396269 0)
(-1.97154 -0.040617 0)
(-1.97185 -0.0414394 0)
(-1.97254 -0.0420949 0)
(-1.97365 -0.0425844 0)
(-1.97513 -0.042918 0)
(-1.97702 -0.0431097 0)
(-1.97929 -0.0431736 0)
(-1.98194 -0.0431215 0)
(-1.98497 -0.0429604 0)
(-1.98838 -0.042694 0)
(-1.99215 -0.0423249 0)
(-1.9963 -0.0418569 0)
(-2.00082 -0.041296 0)
(-2.0057 -0.0406479 0)
(-2.01097 -0.0399177 0)
(-2.01664 -0.0391141 0)
(-2.02272 -0.038249 0)
(-2.02922 -0.0373303 0)
(-2.03617 -0.036364 0)
(-2.04357 -0.0353626 0)
(-2.05141 -0.0343437 0)
(-2.05971 -0.033326 0)
(-2.06847 -0.032335 0)
(-2.07764 -0.0314009 0)
(-2.08722 -0.0305604 0)
(-2.09717 -0.0298585 0)
(-2.10749 -0.0293386 0)
(-2.11807 -0.029033 0)
(-2.12889 -0.0289767 0)
(-2.13988 -0.0292044 0)
(-2.15096 -0.0296957 0)
(-2.16212 -0.0303512 0)
(-2.17328 -0.0309802 0)
(-2.18429 -0.0312187 0)
(-2.19509 -0.0304672 0)
(-2.20529 -0.0278372 0)
(-2.2143 -0.0220004 0)
(-2.22193 -0.0112335 0)
(-2.22787 0.00657954 0)
(-2.23002 0.0364725 0)
(-2.23334 0.088912 0)
(-2.23736 0.18377 0)
(-2.23279 0.363213 0)
(-2.21033 0.689566 0)
(-1.99655 0.00128039 0)
(-1.98004 0.000807428 0)
(-1.99841 0.00104199 0)
(-1.9887 0.000647287 0)
(-1.9904 0.000847789 0)
(-1.98806 0.000809943 0)
(-1.99354 0.00061785 0)
(-1.99204 0.000865585 0)
(-1.98156 0.000754574 0)
(-2.00119 0.000429772 0)
(-1.9848 0.000260027 0)
(-1.99268 0.000134326 0)
(-1.99898 0.000166968 0)
(-1.98371 -0.000224184 0)
(-1.99038 -0.000928337 0)
(-1.99596 -0.000668171 0)
(-1.99112 -0.000492685 0)
(-1.98282 -0.000507225 0)
(-1.99548 -0.000499409 0)
(-1.99064 -0.000808754 0)
(-1.99168 -0.000793003 0)
(-1.99046 -0.000707731 0)
(-1.99675 -0.000695801 0)
(-1.9771 -0.000793138 0)
(-1.9933 -0.000717509 0)
(-1.99159 -0.000625513 0)
(-1.99335 -0.000972809 0)
(-1.98048 -0.0010416 0)
(-1.99357 -0.00123425 0)
(-1.99868 -0.00174772 0)
(-1.98013 -0.00233676 0)
(-1.99319 -0.00293745 0)
(-1.99255 -0.00359239 0)
(-1.99132 -0.00416981 0)
(-1.99498 -0.00491515 0)
(-1.99597 -0.00598881 0)
(-1.98694 -0.00693852 0)
(-2.00293 -0.00826086 0)
(-1.99888 -0.00978025 0)
(-2.00069 -0.0112226 0)
(-2.0044 -0.0126976 0)
(-2.00619 -0.0142688 0)
(-2.0089 -0.0159279 0)
(-2.01173 -0.0176919 0)
(-2.01479 -0.0195548 0)
(-2.01812 -0.0215041 0)
(-2.02173 -0.0235137 0)
(-2.02564 -0.0255317 0)
(-2.02988 -0.02751 0)
(-2.03446 -0.029414 0)
(-2.03934 -0.0312127 0)
(-2.04471 -0.0328737 0)
(-2.05046 -0.0343733 0)
(-2.05674 -0.0356973 0)
(-2.06358 -0.0368347 0)
(-2.07091 -0.0377838 0)
(-2.07877 -0.0385508 0)
(-2.08714 -0.0391461 0)
(-2.09599 -0.0395788 0)
(-2.10538 -0.0398573 0)
(-2.11517 -0.0399909 0)
(-2.12536 -0.0399923 0)
(-2.1359 -0.0398757 0)
(-2.14675 -0.0396529 0)
(-2.15789 -0.0393311 0)
(-2.16927 -0.0389133 0)
(-2.18088 -0.0384017 0)
(-2.19269 -0.0377991 0)
(-2.20466 -0.037109 0)
(-2.21676 -0.0363347 0)
(-2.22899 -0.0354801 0)
(-2.24133 -0.0345513 0)
(-2.25377 -0.0335575 0)
(-2.26629 -0.0325081 0)
(-2.27892 -0.0314118 0)
(-2.29164 -0.0302802 0)
(-2.30441 -0.0291299 0)
(-2.31725 -0.0279846 0)
(-2.33017 -0.0268733 0)
(-2.34312 -0.0258265 0)
(-2.3561 -0.0248816 0)
(-2.36909 -0.0240906 0)
(-2.38207 -0.0235003 0)
(-2.39501 -0.0231434 0)
(-2.4079 -0.0230561 0)
(-2.42069 -0.0232722 0)
(-2.43337 -0.0237714 0)
(-2.44591 -0.0244608 0)
(-2.45824 -0.0251607 0)
(-2.47021 -0.0255337 0)
(-2.48162 -0.0250487 0)
(-2.49198 -0.022938 0)
(-2.50041 -0.0180976 0)
(-2.50641 -0.00893643 0)
(-2.50865 0.00701877 0)
(-2.50352 0.035106 0)
(-2.49164 0.0850743 0)
(-2.46607 0.175451 0)
(-2.406 0.339282 0)
(-2.31052 0.600064 0)
(-1.99854 0.000942101 0)
(-1.96515 0.000710342 0)
(-1.99866 0.000871908 0)
(-1.99432 0.00079888 0)
(-1.97616 0.000860506 0)
(-1.99756 0.000796384 0)
(-1.97609 0.0007364 0)
(-1.99598 0.0012687 0)
(-1.98022 0.000778508 0)
(-1.99724 0.000175197 0)
(-1.98269 0.000284315 0)
(-1.98927 0.000291093 0)
(-1.99091 9.42969e-05 0)
(-1.99307 -0.000294848 0)
(-1.97609 -0.000714918 0)
(-1.99821 -0.000767214 0)
(-1.99184 -0.000686298 0)
(-1.97047 -0.000676285 0)
(-1.99953 -0.000695879 0)
(-1.98253 -0.000516257 0)
(-1.98939 -0.000653857 0)
(-1.99224 -0.00101699 0)
(-1.99498 -0.000954724 0)
(-1.9737 -0.000529065 0)
(-1.98819 -0.000598259 0)
(-1.9951 -0.000882961 0)
(-1.98562 -0.000727205 0)
(-1.9795 -0.000720234 0)
(-1.99626 -0.00136344 0)
(-1.99337 -0.00165954 0)
(-1.99137 -0.00178484 0)
(-1.99039 -0.00237507 0)
(-1.98733 -0.00320657 0)
(-1.99184 -0.00363032 0)
(-2.00711 -0.00416799 0)
(-1.99132 -0.00510508 0)
(-1.99912 -0.00584064 0)
(-2.00969 -0.00705689 0)
(-2.00367 -0.00829315 0)
(-2.01184 -0.00953597 0)
(-2.01682 -0.0109202 0)
(-2.02051 -0.0123507 0)
(-2.02632 -0.0138346 0)
(-2.0322 -0.0154082 0)
(-2.03864 -0.0170619 0)
(-2.04572 -0.0187908 0)
(-2.05338 -0.0205788 0)
(-2.06168 -0.0223681 0)
(-2.07059 -0.0241043 0)
(-2.08015 -0.025749 0)
(-2.09032 -0.0272731 0)
(-2.10138 -0.0286551 0)
(-2.11305 -0.0298661 0)
(-2.12541 -0.0308939 0)
(-2.13843 -0.0317401 0)
(-2.15204 -0.0324107 0)
(-2.16618 -0.0329161 0)
(-2.18081 -0.0332668 0)
(-2.19587 -0.0334728 0)
(-2.21137 -0.0335459 0)
(-2.22721 -0.0334983 0)
(-2.24335 -0.0333429 0)
(-2.2597 -0.0330934 0)
(-2.27622 -0.0327606 0)
(-2.29284 -0.0323505 0)
(-2.30953 -0.0318645 0)
(-2.32624 -0.0313042 0)
(-2.34293 -0.030672 0)
(-2.35953 -0.0299699 0)
(-2.37601 -0.0291979 0)
(-2.39233 -0.0283571 0)
(-2.40848 -0.0274523 0)
(-2.42443 -0.0264885 0)
(-2.44014 -0.0254721 0)
(-2.45563 -0.0244136 0)
(-2.47088 -0.0233248 0)
(-2.48589 -0.0222193 0)
(-2.50064 -0.0211198 0)
(-2.51516 -0.0200555 0)
(-2.52944 -0.0190562 0)
(-2.5435 -0.0181603 0)
(-2.55735 -0.0174213 0)
(-2.571 -0.0168835 0)
(-2.58449 -0.0165801 0)
(-2.59781 -0.0165466 0)
(-2.611 -0.0168193 0)
(-2.62404 -0.017391 0)
(-2.63688 -0.0181732 0)
(-2.64945 -0.0190127 0)
(-2.66158 -0.0196211 0)
(-2.67295 -0.0195588 0)
(-2.68295 -0.0181967 0)
(-2.69056 -0.0147178 0)
(-2.6948 -0.00773457 0)
(-2.6939 0.00526265 0)
(-2.68232 0.0290963 0)
(-2.6574 0.0720396 0)
(-2.60695 0.149817 0)
(-2.50466 0.285342 0)
(-2.3641 0.478712 0)
(-1.98851 0.00153779 0)
(-1.97815 0.000640454 0)
(-1.98874 0.000526056 0)
(-1.99312 0.00104769 0)
(-1.97712 0.000883838 0)
(-1.99502 0.000860442 0)
(-1.97864 0.000979546 0)
(-1.98656 0.00125128 0)
(-1.98939 0.000504778 0)
(-1.97864 6.66113e-05 0)
(-1.98986 0.000564956 0)
(-1.98424 0.000521687 0)
(-1.9885 -0.000129682 0)
(-1.98982 -0.00040916 0)
(-1.98252 -0.000375916 0)
(-1.98593 -0.000625898 0)
(-1.99304 -0.000966256 0)
(-1.97568 -0.000891243 0)
(-1.99364 -0.00079726 0)
(-1.98174 -0.000394301 0)
(-1.98619 -0.00039034 0)
(-1.98824 -0.00126331 0)
(-1.9897 -0.00118317 0)
(-1.97939 -0.000125765 0)
(-1.98898 -0.00047474 0)
(-1.98914 -0.00112413 0)
(-1.99071 -0.000296637 0)
(-1.97867 -0.000232479 0)
(-1.98951 -0.00101923 0)
(-1.99533 -0.00125482 0)
(-2.00074 -0.00126829 0)
(-1.98616 -0.00154663 0)
(-1.98702 -0.00217354 0)
(-1.99538 -0.00273464 0)
(-2.00996 -0.00316074 0)
(-1.9958 -0.00369024 0)
(-2.00997 -0.00431463 0)
(-2.0128 -0.00528066 0)
(-2.00624 -0.00613739 0)
(-2.02242 -0.00707421 0)
(-2.02569 -0.00818938 0)
(-2.03077 -0.00933594 0)
(-2.03907 -0.0105016 0)
(-2.04693 -0.0117364 0)
(-2.05583 -0.0130272 0)
(-2.06567 -0.0143807 0)
(-2.07636 -0.015796 0)
(-2.0879 -0.0172052 0)
(-2.10045 -0.0185412 0)
(-2.11394 -0.0197796 0)
(-2.12841 -0.0209028 0)
(-2.14376 -0.0218955 0)
(-2.15988 -0.0227397 0)
(-2.17672 -0.0234284 0)
(-2.19418 -0.0239687 0)
(-2.21219 -0.0243703 0)
(-2.23064 -0.0246431 0)
(-2.24947 -0.0247943 0)
(-2.26861 -0.0248309 0)
(-2.28799 -0.024764 0)
(-2.30754 -0.024607 0)
(-2.32718 -0.0243742 0)
(-2.34683 -0.0240785 0)
(-2.36643 -0.0237283 0)
(-2.38593 -0.0233262 0)
(-2.4053 -0.0228715 0)
(-2.42449 -0.0223652 0)
(-2.44345 -0.0218094 0)
(-2.46214 -0.0212037 0)
(-2.48053 -0.0205444 0)
(-2.4986 -0.0198297 0)
(-2.51633 -0.0190621 0)
(-2.5337 -0.0182441 0)
(-2.55069 -0.0173784 0)
(-2.5673 -0.0164727 0)
(-2.58355 -0.0155377 0)
(-2.59942 -0.0145856 0)
(-2.61494 -0.0136359 0)
(-2.63011 -0.0127148 0)
(-2.64496 -0.0118497 0)
(-2.65951 -0.0110777 0)
(-2.6738 -0.0104539 0)
(-2.68784 -0.0100192 0)
(-2.70167 -0.00980526 0)
(-2.71533 -0.00984652 0)
(-2.72884 -0.0101867 0)
(-2.74216 -0.0108525 0)
(-2.75526 -0.0117459 0)
(-2.76803 -0.012762 0)
(-2.78026 -0.0136757 0)
(-2.79154 -0.014149 0)
(-2.80121 -0.013711 0)
(-2.80819 -0.0117982 0)
(-2.81088 -0.00741903 0)
(-2.80765 0.00163701 0)
(-2.79097 0.0192434 0)
(-2.75581 0.0515022 0)
(-2.68636 0.110264 0)
(-2.55457 0.209855 0)
(-2.38854 0.340193 0)
(-1.98149 0.0019141 0)
(-1.99189 0.000763427 0)
(-1.97814 0.000219188 0)
(-1.99379 0.000974032 0)
(-1.98071 0.0010882 0)
(-1.98511 0.00100851 0)
(-1.98811 0.00108188 0)
(-1.98343 0.000646105 0)
(-1.9959 0.000264896 0)
(-1.96338 0.000562757 0)
(-1.98823 0.000693593 0)
(-1.99289 0.00037384 0)
(-1.98143 -0.000150237 0)
(-1.98631 -0.00025751 0)
(-1.99074 -0.000307477 0)
(-1.98006 -0.000445585 0)
(-1.98731 -0.000968208 0)
(-1.97821 -0.00117634 0)
(-1.99432 -0.000734356 0)
(-1.97887 -0.000340204 0)
(-1.99384 -0.000462813 0)
(-1.9767 -0.00119055 0)
(-1.98696 -0.000903942 0)
(-1.9851 -0.000199411 0)
(-1.99185 -0.000421208 0)
(-1.9805 -0.000733026 0)
(-1.99727 -6.53274e-05 0)
(-1.988 0.000403161 0)
(-1.97447 -0.000101937 0)
(-2.00241 -0.00068504 0)
(-1.99622 -0.000713033 0)
(-1.99614 -0.000609209 0)
(-1.98796 -0.000934807 0)
(-2.0008 -0.00151411 0)
(-2.00572 -0.00183637 0)
(-2.00083 -0.00199989 0)
(-2.01665 -0.00249178 0)
(-2.01334 -0.00313659 0)
(-2.01058 -0.00360658 0)
(-2.02969 -0.00417441 0)
(-2.0307 -0.00487832 0)
(-2.03743 -0.00561519 0)
(-2.04735 -0.00634768 0)
(-2.05625 -0.00711941 0)
(-2.06676 -0.00792226 0)
(-2.07841 -0.00877139 0)
(-2.09105 -0.00967348 0)
(-2.10491 -0.0105585 0)
(-2.12021 -0.011368 0)
(-2.13646 -0.0121019 0)
(-2.15372 -0.0127557 0)
(-2.17186 -0.0133194 0)
(-2.1908 -0.0137853 0)
(-2.21042 -0.0141513 0)
(-2.23059 -0.0144225 0)
(-2.25119 -0.0146059 0)
(-2.2721 -0.0147082 0)
(-2.29323 -0.0147342 0)
(-2.31449 -0.0146885 0)
(-2.3358 -0.0145787 0)
(-2.35706 -0.0144147 0)
(-2.37818 -0.0142068 0)
(-2.39912 -0.0139636 0)
(-2.41984 -0.0136892 0)
(-2.44032 -0.013383 0)
(-2.46052 -0.0130427 0)
(-2.48042 -0.0126679 0)
(-2.49998 -0.0122587 0)
(-2.5192 -0.0118116 0)
(-2.53806 -0.0113212 0)
(-2.55655 -0.0107847 0)
(-2.57467 -0.0102022 0)
(-2.59239 -0.00957408 0)
(-2.60972 -0.00890063 0)
(-2.62666 -0.0081864 0)
(-2.64321 -0.00743965 0)
(-2.65939 -0.00667167 0)
(-2.67521 -0.00589928 0)
(-2.69068 -0.00514481 0)
(-2.70583 -0.00443381 0)
(-2.72071 -0.0038007 0)
(-2.7353 -0.00329893 0)
(-2.74967 -0.00297418 0)
(-2.76386 -0.00285081 0)
(-2.77789 -0.00297221 0)
(-2.79183 -0.00336877 0)
(-2.80554 -0.00414546 0)
(-2.81903 -0.00515712 0)
(-2.83218 -0.00638205 0)
(-2.84471 -0.00765659 0)
(-2.85619 -0.00874969 0)
(-2.86591 -0.00935833 0)
(-2.87275 -0.00913776 0)
(-2.87486 -0.00759272 0)
(-2.86991 -0.00317303 0)
(-2.85124 0.00664448 0)
(-2.80922 0.0256448 0)
(-2.72772 0.0608822 0)
(-2.57803 0.12026 0)
(-2.39957 0.193538 0)
(-1.98471 0.00211374 0)
(-1.99126 0.000963304 0)
(-1.97024 0.000392956 0)
(-1.99685 0.000554704 0)
(-1.98582 0.000831715 0)
(-1.97722 0.00125121 0)
(-1.98614 0.00111517 0)
(-1.99373 0.000114452 0)
(-1.97693 0.000213963 0)
(-1.98518 0.00105281 0)
(-1.97829 0.00065142 0)
(-1.99176 0.000165941 0)
(-1.97504 3.88426e-05 0)
(-1.9964 -0.000191794 0)
(-1.98351 -0.000291873 0)
(-1.98378 -0.000572363 0)
(-1.97797 -0.000818975 0)
(-1.97834 -0.00106454 0)
(-1.99525 -0.000662764 0)
(-1.98573 -0.000339281 0)
(-1.99966 -0.000647107 0)
(-1.96238 -0.00078598 -9.23915e-42)
(-1.98701 -0.000588413 0)
(-1.98691 -0.000484618 0)
(-1.99027 -0.0002805 0)
(-1.98676 5.54699e-05 0)
(-1.99532 0.00026773 0)
(-1.99039 0.000898157 0)
(-1.97694 0.000781885 0)
(-1.99932 8.0555e-05 0)
(-1.99061 0.000134374 0)
(-2.00362 0.000352002 0)
(-1.99043 0.000229666 0)
(-2.0011 -0.000111728 0)
(-2.00408 -0.000230418 0)
(-2.00563 -0.000198553 0)
(-2.01797 -0.0004982 0)
(-2.01245 -0.000779659 0)
(-2.01439 -0.000921677 0)
(-2.03252 -0.00106172 0)
(-2.03261 -0.0012682 0)
(-2.04059 -0.00150278 0)
(-2.05122 -0.00172582 0)
(-2.06055 -0.00195374 0)
(-2.07191 -0.00218709 0)
(-2.08447 -0.00243242 0)
(-2.0981 -0.00269294 0)
(-2.11348 -0.00294317 0)
(-2.13028 -0.00316305 0)
(-2.14795 -0.00335663 0)
(-2.16664 -0.00352467 0)
(-2.18624 -0.00366447 0)
(-2.20662 -0.0037741 0)
(-2.2276 -0.00385373 0)
(-2.24904 -0.00390515 0)
(-2.2708 -0.00393042 0)
(-2.29275 -0.00393149 0)
(-2.31479 -0.00390954 0)
(-2.33682 -0.00386544 0)
(-2.35875 -0.00380062 0)
(-2.38049 -0.00371677 0)
(-2.40198 -0.00361524 0)
(-2.42316 -0.00349671 0)
(-2.44404 -0.00336027 0)
(-2.46459 -0.00320333 0)
(-2.48482 -0.00302275 0)
(-2.5047 -0.00281579 0)
(-2.52423 -0.00257952 0)
(-2.54339 -0.00230911 0)
(-2.5622 -0.00199981 0)
(-2.58065 -0.00164927 0)
(-2.59873 -0.00125589 0)
(-2.61645 -0.00081767 0)
(-2.63379 -0.000334119 0)
(-2.65077 0.000191638 0)
(-2.66739 0.000753633 0)
(-2.68365 0.00134262 0)
(-2.69958 0.00194435 0)
(-2.7152 0.00253988 0)
(-2.73052 0.00310374 0)
(-2.74559 0.00360466 0)
(-2.7604 0.0039968 0)
(-2.77505 0.00423329 4.97621e-41)
(-2.78957 0.00428484 0)
(-2.80398 0.00409726 0)
(-2.8183 0.00363767 0)
(-2.83245 0.00278651 0)
(-2.84644 0.00164924 1.93868e-41)
(-2.86006 0.000195451 0)
(-2.87303 -0.00149205 0)
(-2.88489 -0.00326804 0)
(-2.89475 -0.00496261 0)
(-2.90179 -0.00652015 0)
(-2.90406 -0.00785478 -4.61663e-41)
(-2.89833 -0.0083793 0)
(-2.87936 -0.0072 0)
(-2.8351 -0.00304399 -3.57819e-41)
(-2.74852 0.00602761 0)
(-2.59114 0.0225725 0)
(-2.40785 0.043158 0)
(-1.98722 0.00254152 0)
(-1.99021 0.000859433 0)
(-1.97397 0.000752239 0)
(-1.99121 0.000256259 0)
(-1.9877 0.000306501 0)
(-1.98112 0.00103413 0)
(-1.99074 0.000938753 0)
(-1.99082 0.000332196 0)
(-1.95909 0.000568884 0)
(-1.99672 0.000864224 0)
(-1.98983 0.00056572 0)
(-1.97494 0.000300488 0)
(-1.98675 0.000106916 0)
(-1.99822 -0.000209352 0)
(-1.97526 -0.000216366 0)
(-1.98317 -0.000933463 0)
(-1.98239 -0.000822344 0)
(-1.9782 -0.000483613 0)
(-1.99203 -0.000511434 0)
(-1.98543 -0.000706512 0)
(-1.9936 -0.000705238 0)
(-1.97405 -0.000318993 -3.74975e-42)
(-1.98553 -0.000414938 0)
(-1.98302 -0.000415419 0)
(-1.98867 2.09927e-05 0)
(-1.99254 0.000717814 0)
(-1.98895 0.000804987 0)
(-1.99074 0.00112816 0)
(-1.98506 0.00136814 0)
(-1.99417 0.00104205 0)
(-1.99253 0.0011541 0)
(-1.99465 0.00129372 0)
(-1.99743 0.00137379 0)
(-1.99747 0.00136842 0)
(-2.00707 0.00144638 0)
(-2.0058 0.00162253 0)
(-2.01357 0.00155721 0)
(-2.01513 0.00161818 0)
(-2.01266 0.00179207 0)
(-2.03153 0.00210526 0)
(-2.03228 0.00242047 0)
(-2.03974 0.0027144 0)
(-2.05035 0.00302414 0)
(-2.05962 0.00336216 0)
(-2.07081 0.0037209 0)
(-2.0832 0.00411161 0)
(-2.09663 0.00453946 0)
(-2.11173 0.00495797 0)
(-2.12822 0.00533819 0)
(-2.14564 0.00568859 0)
(-2.16403 0.0060063 0)
(-2.18335 0.00628556 0)
(-2.20344 0.00652232 0)
(-2.22416 0.00671454 0)
(-2.24536 0.00686424 0)
(-2.2669 0.00697514 0)
(-2.28867 0.00705068 0)
(-2.31056 0.00709365 0)
(-2.33247 0.00710762 0)
(-2.3543 0.00709832 0)
(-2.37597 0.00707383 0)
(-2.3974 0.00704322 0)
(-2.41855 0.00701462 0)
(-2.4394 0.00699407 0)
(-2.45993 0.00698563 0)
(-2.48014 0.00699309 0)
(-2.49999 0.00702169 0)
(-2.51947 0.00707743 0)
(-2.53858 0.00716604 0)
(-2.55732 0.00729119 0)
(-2.57569 0.00745456 0)
(-2.59368 0.00765907 0)
(-2.61127 0.00790883 0)
(-2.62849 0.00820516 0)
(-2.64533 0.00854567 0)
(-2.6618 0.00892653 0)
(-2.67791 0.00934122 0)
(-2.69368 0.00977823 0)
(-2.70913 0.0102213 0)
(-2.72429 0.0106469 0)
(-2.7392 0.0110259 0)
(-2.7539 0.0113188 0)
(-2.76842 0.0114841 1.34995e-40)
(-2.78283 0.0114785 0)
(-2.79713 0.0112453 0)
(-2.81135 0.0107227 0)
(-2.82548 0.00983362 0)
(-2.83945 0.00856996 1.00739e-40)
(-2.85305 0.00687895 0)
(-2.86599 0.00474463 0)
(-2.87774 0.00222474 0)
(-2.88752 -0.00058785 0)
(-2.89432 -0.00392813 0)
(-2.89629 -0.00817027 -4.80205e-41)
(-2.89048 -0.0136425 0)
(-2.87115 -0.0211229 0)
(-2.82784 -0.0323076 -3.79773e-40)
(-2.74223 -0.05018 0)
(-2.5863 -0.0774774 0)
(-2.40411 -0.108358 0)
(-1.9928 0.00185062 0)
(-1.98625 0.000293073 0)
(-1.98179 0.000597866 0)
(-1.98585 0.000271336 0)
(-1.98693 0.000206229 0)
(-1.98507 0.000380269 0)
(-1.99346 0.000568239 0)
(-1.97796 0.000820552 0)
(-1.97467 0.00104438 0)
(-1.99158 0.000550737 0)
(-1.98282 0.000383378 0)
(-1.98549 0.000545009 0)
(-1.98901 -5.47333e-06 0)
(-1.98467 -9.63786e-05 0)
(-1.98522 -0.000172921 0)
(-1.9851 -0.00105729 0)
(-1.98216 -0.000772525 0)
(-1.98036 -0.000350842 0)
(-1.99299 -0.000484392 0)
(-1.98004 -0.000882494 0)
(-1.98587 -0.000749501 0)
(-1.99053 2.32203e-05 0)
(-1.98408 -8.03224e-05 0)
(-1.97721 -0.000219063 0)
(-1.99094 0.000308478 0)
(-1.99091 0.00121472 0)
(-1.98433 0.00126946 0)
(-1.99566 0.00135916 0)
(-1.98513 0.00185982 0)
(-1.99553 0.0018047 0)
(-1.99067 0.00206364 0)
(-1.98211 0.00231728 0)
(-2.00649 0.00250327 0)
(-1.99415 0.00273202 0)
(-2.00531 0.0029635 0)
(-2.00342 0.0034012 0)
(-2.00676 0.0035888 0)
(-2.01876 0.00383689 0)
(-2.00654 0.00444074 0)
(-2.02726 0.00519913 0)
(-2.02952 0.0059776 0)
(-2.03524 0.00675859 0)
(-2.04501 0.00756575 0)
(-2.05379 0.0084315 0)
(-2.06399 0.00934293 0)
(-2.07532 0.0103147 0)
(-2.0876 0.0113541 0)
(-2.10102 0.012387 0)
(-2.11575 0.0133463 0)
(-2.13151 0.0142301 0)
(-2.14827 0.0150299 0)
(-2.16587 0.0157331 0)
(-2.18428 0.0163305 0)
(-2.20338 0.0168173 0)
(-2.22303 0.0171978 0)
(-2.24314 0.0174803 0)
(-2.26358 0.0176723 0)
(-2.28428 0.0177795 0)
(-2.30515 0.0178085 0)
(-2.3261 0.0177705 0)
(-2.34704 0.0176805 0)
(-2.36788 0.0175557 0)
(-2.38857 0.0174114 0)
(-2.40905 0.0172587 0)
(-2.4293 0.0171036 0)
(-2.44928 0.016951 0)
(-2.46896 0.0168085 0)
(-2.48829 0.0166852 0)
(-2.50726 0.0165887 0)
(-2.52586 0.0165231 0)
(-2.54406 0.0164903 0)
(-2.56185 0.0164953 0)
(-2.57923 0.0165453 0)
(-2.59619 0.0166431 0)
(-2.61274 0.0167875 0)
(-2.62889 0.0169774 0)
(-2.64464 0.0172094 0)
(-2.66003 0.0174744 0)
(-2.67507 0.0177592 0)
(-2.6898 0.0180441 0)
(-2.70425 0.018302 0)
(-2.71848 0.018497 0)
(-2.73254 0.0185898 0)
(-2.74647 0.0185318 0)
(-2.76031 0.0182619 0)
(-2.77409 0.0177048 0)
(-2.78782 0.0167764 0)
(-2.80141 0.0154049 0)
(-2.81469 0.0134877 0)
(-2.82735 0.0109277 0)
(-2.83886 0.00764987 0)