/*--------------------------------*- C++ -*----------------------------------*\
| =========                 |                                                 |
| \\      /  F ield         | OpenFOAM: The Open Source CFD Toolbox           |
|  \\    /   O peration     | Version:  2.1.0                                 |
|   \\  /    A nd           | Web:      www.OpenFOAM.org                      |
|    \\/     M anipulation  |                                                 |
\*---------------------------------------------------------------------------*/
FoamFile
{
    version     2.0;
    format      ascii;
    class       volScalarField;
    location    "0.16";
    object      C1;
}
// * * * * * * * * * * * * * * * * * * * * * * * * * * * * * * * * * * * * * //

dimensions      [0 0 0 0 0 0 0];

internalField   nonuniform List<scalar> 
6400
(
4.68267e-18
6.3105e-18
8.52534e-18
1.14733e-17
1.53879e-17
2.05735e-17
2.74247e-17
3.64516e-17
4.83117e-17
6.38497e-17
8.41472e-17
1.10584e-16
1.44917e-16
1.89369e-16
2.46753e-16
3.20608e-16
4.15374e-16
5.36604e-16
6.91218e-16
8.87806e-16
1.137e-15
1.4519e-15
1.84859e-15
2.34675e-15
2.97038e-15
3.7486e-15
4.71661e-15
5.91681e-15
7.40006e-15
9.22707e-15
1.147e-14
1.42144e-14
1.7561e-14
2.16277e-14
2.65525e-14
3.24954e-14
3.96412e-14
4.82021e-14
5.84206e-14
7.05718e-14
8.49658e-14
1.0195e-13
1.2191e-13
1.45271e-13
1.72497e-13
2.04092e-13
2.40592e-13
2.82568e-13
3.30614e-13
3.85346e-13
4.47397e-13
5.17388e-13
5.95912e-13
6.83534e-13
7.8077e-13
8.88076e-13
1.00581e-12
1.13421e-12
1.27335e-12
1.42311e-12
1.5832e-12
1.75307e-12
1.9319e-12
2.1186e-12
2.31175e-12
2.5096e-12
2.71007e-12
2.91072e-12
3.10878e-12
3.30119e-12
3.48458e-12
3.65535e-12
3.80956e-12
3.94308e-12
4.0517e-12
4.13125e-12
4.17767e-12
4.18715e-12
4.15622e-12
4.08195e-12
3.96208e-12
3.79525e-12
3.58125e-12
3.32128e-12
3.0185e-12
2.67843e-12
2.30942e-12
1.92296e-12
1.53375e-12
1.15925e-12
8.18432e-13
5.29478e-13
3.06894e-13
1.57243e-13
7.36009e-14
3.59729e-14
1.62682e-14
6.00253e-15
1.63734e-15
3.0238e-16
1.67513e-17
2.25803e-17
3.04504e-17
4.08921e-17
5.47225e-17
7.30009e-17
9.70968e-17
1.28778e-16
1.70317e-16
2.24631e-16
2.95445e-16
3.87506e-16
5.06841e-16
6.61078e-16
8.59837e-16
1.11521e-15
1.44234e-15
1.86014e-15
2.39213e-15
3.06747e-15
3.9222e-15
5.00069e-15
6.35732e-15
8.05854e-15
1.01853e-14
1.28356e-14
1.6128e-14
2.02049e-14
2.5237e-14
3.1428e-14
3.90197e-14
4.82982e-14
5.96001e-14
7.33202e-14
8.99185e-14
1.09929e-13
1.33968e-13
1.62742e-13
1.9706e-13
2.37837e-13
2.86107e-13
3.43027e-13
4.09881e-13
4.88088e-13
5.79198e-13
6.84887e-13
8.06953e-13
9.47296e-13
1.1079e-12
1.2908e-12
1.49808e-12
1.73183e-12
1.99405e-12
2.28668e-12
2.61142e-12
2.96976e-12
3.36287e-12
3.79149e-12
4.25583e-12
4.75548e-12
5.28933e-12
5.85545e-12
6.45104e-12
7.07232e-12
7.71443e-12
8.37137e-12
9.03602e-12
9.70014e-12
1.03544e-11
1.09884e-11
1.15909e-11
1.215e-11
1.26527e-11
1.30852e-11
1.34336e-11
1.36841e-11
1.38232e-11
1.38382e-11
1.37176e-11
1.34516e-11
1.30324e-11
1.24555e-11
1.17205e-11
1.08318e-11
9.80085e-12
8.64775e-12
7.40271e-12
6.10756e-12
4.81559e-12
3.58909e-12
2.49383e-12
1.58914e-12
9.13862e-13
4.71782e-13
2.26524e-13
1.15243e-13
5.40218e-14
2.18444e-14
7.45298e-15
2.22738e-15
6.25966e-17
8.43105e-17
1.13545e-16
1.52272e-16
2.03493e-16
2.71094e-16
3.60097e-16
4.76973e-16
6.30038e-16
8.29946e-16
1.0903e-15
1.42842e-15
1.86626e-15
2.43161e-15
3.15947e-15
4.09382e-15
5.28969e-15
6.81574e-15
8.75734e-15
1.12202e-14
1.43348e-14
1.82618e-14
2.31981e-14
2.9384e-14
3.71121e-14
4.67369e-14
5.86864e-14
7.34748e-14
9.17183e-14
1.14152e-13
1.41647e-13
1.75236e-13
2.16133e-13
2.6576e-13
3.25776e-13
3.98103e-13
4.84963e-13
5.88904e-13
7.12837e-13
8.60064e-13
1.03431e-12
1.23975e-12
1.48102e-12
1.76326e-12
2.09206e-12
2.47353e-12
2.91419e-12
3.42098e-12
4.00118e-12
4.66232e-12
5.41203e-12
6.258e-12
7.20782e-12
8.26874e-12
9.44732e-12
1.07492e-11
1.2179e-11
1.37397e-11
1.54326e-11
1.72565e-11
1.9208e-11
2.12804e-11
2.34642e-11
2.57461e-11
2.81088e-11
3.0531e-11
3.29873e-11
3.54481e-11
3.78799e-11
4.02454e-11
4.25041e-11
4.46134e-11
4.65267e-11
4.8194e-11
4.95646e-11
5.05875e-11
5.12127e-11
5.13918e-11
5.10796e-11
5.02359e-11
4.88276e-11
4.68319e-11
4.42404e-11
4.10633e-11
3.73363e-11
3.31271e-11
2.8543e-11
2.37358e-11
1.89027e-11
1.42767e-11
1.01065e-11
6.61851e-12
3.96448e-12
2.17236e-12
1.1309e-12
6.24669e-13
3.1823e-13
1.46633e-13
6.17702e-14
2.59266e-14
2.13187e-16
2.86748e-16
3.85671e-16
5.16624e-16
6.89664e-16
9.1783e-16
1.21796e-15
1.61173e-15
2.12699e-15
2.79938e-15
3.67438e-15
4.80987e-15
6.2792e-15
8.17512e-15
1.06144e-14
1.37439e-14
1.77469e-14
2.28526e-14
2.93453e-14
3.75775e-14
4.7984e-14
6.10998e-14
7.75803e-14
9.82263e-14
1.24012e-13
1.56118e-13
1.95969e-13
2.45279e-13
3.061e-13
3.80879e-13
4.72524e-13
5.84474e-13
7.20776e-13
8.86178e-13
1.08621e-12
1.32731e-12
1.61689e-12
1.96348e-12
2.37683e-12
2.86801e-12
3.44954e-12
4.13543e-12
4.94135e-12
5.8846e-12
6.98421e-12
8.26087e-12
9.73693e-12
1.14363e-11
1.33842e-11
1.5607e-11
1.8132e-11
2.09863e-11
2.41973e-11
2.77915e-11
3.17938e-11
3.62264e-11
4.11081e-11
4.64534e-11
5.22709e-11
5.85624e-11
6.53215e-11
7.25324e-11
8.01689e-11
8.81933e-11
9.65546e-11
1.05188e-10
1.14014e-10
1.2294e-10
1.31858e-10
1.40648e-10
1.49177e-10
1.57305e-10
1.64877e-10
1.71725e-10
1.77673e-10
1.8254e-10
1.86144e-10
1.88297e-10
1.88816e-10
1.87525e-10
1.84258e-10
1.78875e-10
1.71269e-10
1.61391e-10
1.49269e-10
1.3504e-10
1.18986e-10
1.01563e-10
8.34188e-11
6.53926e-11
4.8455e-11
3.35916e-11
2.16118e-11
1.29383e-11
7.46926e-12
4.46135e-12
2.50053e-12
1.30714e-12
6.53564e-13
3.44601e-13
6.5626e-16
8.81216e-16
1.18358e-15
1.58379e-15
2.11238e-15
2.80897e-15
3.72471e-15
4.92546e-15
6.49571e-15
8.54361e-15
1.12071e-14
1.46616e-14
1.91295e-14
2.48917e-14
3.23021e-14
4.18049e-14
5.3956e-14
6.94485e-14
8.91443e-14
1.14111e-13
1.45665e-13
1.85429e-13
2.35389e-13
2.9797e-13
3.76129e-13
4.73448e-13
5.94253e-13
7.43749e-13
9.28176e-13
1.15498e-12
1.43303e-12
1.7728e-12
2.18665e-12
2.68911e-12
3.29713e-12
4.03042e-12
4.91182e-12
5.96761e-12
7.22792e-12
8.72707e-12
1.0504e-11
1.26024e-11
1.50715e-11
1.79657e-11
2.13455e-11
2.52768e-11
2.98315e-11
3.50872e-11
4.11267e-11
4.80378e-11
5.59118e-11
6.4843e-11
7.49272e-11
8.62603e-11
9.89364e-11
1.13044e-10
1.28665e-10
1.4587e-10
1.64716e-10
1.85243e-10
2.07467e-10
2.31381e-10
2.56946e-10
2.84093e-10
3.1271e-10
3.42644e-10
3.73694e-10
4.05615e-10
4.38112e-10
4.70839e-10
5.03404e-10
5.35376e-10
5.66282e-10
5.95587e-10
6.22716e-10
6.47048e-10
6.67921e-10
6.84631e-10
6.96435e-10
7.02555e-10
7.02189e-10
6.94531e-10
6.78814e-10
6.54367e-10
6.20702e-10
5.77649e-10
5.25512e-10
4.65226e-10
3.98542e-10
3.28154e-10
2.57683e-10
1.91403e-10
1.3363e-10
8.78427e-11
5.58137e-11
3.61331e-11
2.22678e-11
1.3056e-11
7.49758e-12
4.61627e-12
1.80928e-15
2.42525e-15
3.25299e-15
4.34879e-15
5.79598e-15
7.70265e-15
1.02084e-14
1.34928e-14
1.77864e-14
2.33841e-14
3.0662e-14
4.00983e-14
5.2299e-14
6.80299e-14
8.82554e-14
1.14186e-13
1.47338e-13
1.896e-13
2.43322e-13
3.11416e-13
3.97477e-13
5.05932e-13
6.42207e-13
8.12938e-13
1.02621e-12
1.29184e-12
1.62169e-12
2.03007e-12
2.53413e-12
3.15441e-12
3.91535e-12
4.84597e-12
5.98057e-12
7.35948e-12
9.03001e-12
1.10473e-11
1.34756e-11
1.63888e-11
1.98724e-11
2.4024e-11
2.8955e-11
3.47916e-11
4.16762e-11
4.97683e-11
5.92457e-11
7.03054e-11
8.3164e-11
9.8058e-11
1.15244e-10
1.34998e-10
1.57614e-10
1.83402e-10
2.12685e-10
2.45797e-10
2.83079e-10
3.24874e-10
3.71518e-10
4.23331e-10
4.80615e-10
5.43633e-10
6.12609e-10
6.87708e-10
7.69026e-10
8.56584e-10
9.50301e-10
1.04997e-09
1.15527e-09
1.26572e-09
1.3807e-09
1.49941e-09
1.62091e-09
1.74405e-09
1.86756e-09
1.98989e-09
2.10931e-09
2.2239e-09
2.33149e-09
2.42967e-09
2.51577e-09
2.58677e-09
2.63935e-09
2.6698e-09
2.67413e-09
2.64813e-09
2.58761e-09
2.48887e-09
2.34936e-09
2.16835e-09
1.9479e-09
1.69398e-09
1.41726e-09
1.13321e-09
8.61131e-10
6.21403e-10
4.31975e-10
3.02642e-10
2.04437e-10
1.33006e-10
8.55849e-11
5.8705e-11
4.39086e-15
5.87703e-15
7.8741e-15
1.05188e-14
1.4012e-14
1.86141e-14
2.46614e-14
3.2587e-14
4.29461e-14
5.64497e-14
7.40042e-14
9.67623e-14
1.26185e-13
1.64121e-13
2.12894e-13
2.75429e-13
3.55384e-13
4.57324e-13
5.86931e-13
7.51249e-13
9.58984e-13
1.22086e-12
1.55006e-12
1.9627e-12
2.47844e-12
3.1212e-12
3.91998e-12
4.90978e-12
6.1327e-12
7.63925e-12
9.48975e-12
1.1756e-11
1.45233e-11
1.78921e-11
2.1981e-11
2.69288e-11
3.28978e-11
4.00765e-11
4.86835e-11
5.89708e-11
7.12277e-11
8.57852e-11
1.0302e-10
1.23358e-10
1.47279e-10
1.75324e-10
2.08093e-10
2.46252e-10
2.90537e-10
3.41752e-10
4.00776e-10
4.68555e-10
5.46108e-10
6.34517e-10
7.34925e-10
8.48529e-10
9.76567e-10
1.1203e-09
1.28101e-09
1.45995e-09
1.65834e-09
1.87733e-09
2.11797e-09
2.38119e-09
2.66775e-09
2.97813e-09
3.31254e-09
3.67087e-09
4.05263e-09
4.45684e-09
4.88201e-09
5.32603e-09
5.78624e-09
6.259e-09
6.74007e-09
7.22443e-09
7.70619e-09
8.17844e-09
8.63316e-09
9.06102e-09
9.45112e-09
9.79071e-09
1.00648e-08
1.02559e-08
1.03429e-08
1.03025e-08
1.01125e-08
9.75257e-09
9.20854e-09
8.47736e-09
7.57234e-09
6.52819e-09
5.40414e-09
4.2828e-09
3.26168e-09
2.45994e-09
1.81571e-09
1.30056e-09
9.21823e-10
6.84046e-10
9.1609e-15
1.22512e-14
1.64039e-14
2.19056e-14
2.91745e-14
3.87528e-14
5.13409e-14
6.78408e-14
8.94101e-14
1.17531e-13
1.54095e-13
2.01508e-13
2.62824e-13
3.41906e-13
4.43623e-13
5.74102e-13
7.41019e-13
9.53968e-13
1.22491e-12
1.56868e-12
2.00369e-12
2.55263e-12
3.24344e-12
4.11041e-12
5.19546e-12
6.54971e-12
8.23531e-12
1.03275e-11
1.29173e-11
1.61141e-11
2.00492e-11
2.48797e-11
3.07928e-11
3.80109e-11
4.67971e-11
5.74621e-11
7.03712e-11
8.5952e-11
1.04704e-10
1.27208e-10
1.54138e-10
1.86269e-10
2.24497e-10
2.69843e-10
3.23478e-10
3.86726e-10
4.6109e-10
5.48259e-10
6.50131e-10
7.68821e-10
9.0668e-10
1.06631e-09
1.25055e-09
1.46255e-09
1.70569e-09
1.98363e-09
2.30032e-09
2.65996e-09
3.06699e-09
3.52607e-09
4.04206e-09
4.6199e-09
5.26466e-09
5.98137e-09
6.77509e-09
7.65051e-09
8.61215e-09
9.66415e-09
1.08102e-08
1.20532e-08
1.33955e-08
1.48384e-08
1.63786e-08
1.80113e-08
1.97303e-08
2.15264e-08
2.33875e-08
2.52978e-08
2.72376e-08
2.91833e-08
3.11073e-08
3.29779e-08
3.47601e-08
3.64163e-08
3.78899e-08
3.90777e-08
3.98837e-08
4.01936e-08
3.98896e-08
3.88681e-08
3.7053e-08
3.44195e-08
3.10187e-08
2.70049e-08
2.26488e-08
1.84279e-08
1.48244e-08
1.16449e-08
9.00395e-09
7.11022e-09
1.60078e-14
2.1413e-14
2.86797e-14
3.83159e-14
5.10584e-14
6.78637e-14
8.99684e-14
1.18967e-13
1.56908e-13
2.06421e-13
2.70861e-13
3.54511e-13
4.62811e-13
6.02656e-13
7.8276e-13
1.01411e-12
1.31049e-12
1.68921e-12
2.17188e-12
2.78539e-12
3.56321e-12
4.54674e-12
5.78715e-12
7.34746e-12
9.30505e-12
1.17547e-11
1.4812e-11
1.86179e-11
2.33433e-11
2.91951e-11
3.6423e-11
4.53275e-11
5.62688e-11
6.9678e-11
8.60688e-11
1.06052e-10
1.30352e-10
1.59823e-10
1.95472e-10
2.38482e-10
2.90236e-10
3.52346e-10
4.26689e-10
5.15438e-10
6.21101e-10
7.46568e-10
8.95149e-10
1.07063e-09
1.27732e-09
1.5201e-09
1.8045e-09
2.13675e-09
2.52381e-09
2.97347e-09
3.49441e-09
4.09623e-09
4.78953e-09
5.58596e-09
6.49826e-09
7.54033e-09
8.72725e-09
1.00753e-08
1.1602e-08
1.33261e-08
1.5266e-08
1.74417e-08
1.98739e-08
2.25833e-08
2.5591e-08
2.89173e-08
3.25819e-08
3.66027e-08
4.09998e-08
4.57886e-08
5.09805e-08
5.65825e-08
6.25958e-08
6.90139e-08
7.58207e-08
8.29881e-08
9.04734e-08
9.82159e-08
1.06133e-07
1.14119e-07
1.22053e-07
1.29833e-07
1.37316e-07
1.44166e-07
1.49906e-07
1.54071e-07
1.56153e-07
1.5566e-07
1.5214e-07
1.45241e-07
1.34797e-07
1.21077e-07
1.05697e-07
9.11776e-08
7.68101e-08
6.42408e-08
2.27344e-14
3.04651e-14
4.08758e-14
5.47108e-14
7.30453e-14
9.72792e-14
1.29227e-13
1.71236e-13
2.26333e-13
2.98409e-13
3.92458e-13
5.14864e-13
6.73777e-13
8.7956e-13
1.14537e-12
1.48785e-12
1.92801e-12
2.49231e-12
3.21394e-12
4.13447e-12
5.30582e-12
6.79263e-12
8.6752e-12
1.1053e-11
1.40489e-11
1.78143e-11
2.25352e-11
2.84396e-11
3.5806e-11
4.49741e-11
5.63565e-11
7.04536e-11
8.787e-11
1.09335e-10
1.35724e-10
1.68089e-10
2.07685e-10
2.56009e-10
3.14841e-10
3.86289e-10
4.72847e-10
5.77452e-10
7.03555e-10
8.552e-10
1.03711e-09
1.25479e-09
1.51461e-09
1.82399e-09
2.19143e-09
2.62677e-09
3.14124e-09
3.7477e-09
4.46082e-09
5.29723e-09
6.27575e-09
7.41761e-09
8.74668e-09
1.02897e-08
1.20763e-08
1.41398e-08
1.65166e-08
1.92472e-08
2.23755e-08
2.59498e-08
3.00246e-08
3.46571e-08
3.99096e-08
4.58493e-08
5.2548e-08
6.00824e-08
6.85333e-08
7.79863e-08
8.85316e-08
1.00261e-07
1.13268e-07
1.27647e-07
1.43491e-07
1.6089e-07
1.79926e-07
2.0067e-07
2.23177e-07
2.47475e-07
2.73563e-07
3.01397e-07
3.30879e-07
3.61844e-07
3.94045e-07
4.27315e-07
4.6151e-07
4.95864e-07
5.2905e-07
5.59815e-07
5.86712e-07
6.08009e-07
6.21598e-07
6.24919e-07
6.14686e-07
5.87867e-07
5.45601e-07
4.88586e-07
2.53714e-14
3.4126e-14
4.59659e-14
6.17696e-14
8.28085e-14
1.10747e-13
1.47754e-13
1.96653e-13
2.61107e-13
3.45855e-13
4.57014e-13
6.0246e-13
7.92306e-13
1.03951e-12
1.36061e-12
1.7767e-12
2.31458e-12
3.00823e-12
3.90061e-12
5.04591e-12
6.51228e-12
8.38526e-12
1.07719e-11
1.38058e-11
1.76534e-11
2.25213e-11
2.86655e-11
3.64021e-11
4.61208e-11
5.83006e-11
7.35285e-11
9.25224e-11
1.16158e-10
1.45499e-10
1.81839e-10
2.26738e-10
2.82083e-10
3.50142e-10
4.33638e-10
5.3583e-10
6.60606e-10
8.12597e-10
9.97299e-10
1.22122e-09
1.49203e-09
1.81878e-09
2.21208e-09
2.68435e-09
3.25009e-09
3.92617e-09
4.73218e-09
5.69077e-09
6.82808e-09
8.1742e-09
9.76362e-09
1.16358e-08
1.38357e-08
1.64146e-08
1.94303e-08
2.29486e-08
2.70432e-08
3.17973e-08
3.73038e-08
4.36668e-08
5.10028e-08
5.94402e-08
6.91217e-08
8.02049e-08
9.28635e-08
1.07288e-07
1.23688e-07
1.42291e-07
1.63347e-07
1.87125e-07
2.13915e-07
2.44031e-07
2.77808e-07
3.156e-07
3.57784e-07
4.0475e-07
4.56903e-07
5.14653e-07
5.78404e-07
6.4855e-07
7.25455e-07
8.09437e-07
9.00751e-07
9.99575e-07
1.10598e-06
1.22041e-06
1.34375e-06
1.47444e-06
1.61106e-06
1.75195e-06
1.89447e-06
2.03406e-06
2.16212e-06
2.26201e-06
2.30096e-06
2.22065e-06
2.21974e-14
3.00137e-14
4.06497e-14
5.49335e-14
7.40685e-14
9.96425e-14
1.33743e-13
1.79106e-13
2.39312e-13
3.19035e-13
4.24355e-13
5.6317e-13
7.4571e-13
9.85195e-13
1.29866e-12
1.70802e-12
2.24136e-12
2.93464e-12
3.83373e-12
4.99703e-12
6.4987e-12
8.43267e-12
1.09176e-11
1.41031e-11
1.81771e-11
2.33755e-11
2.99929e-11
3.83974e-11
4.90465e-11
6.25083e-11
7.94861e-11
1.00848e-10
1.27664e-10
1.61247e-10
2.03209e-10
2.55516e-10
3.20567e-10
4.01279e-10
5.01188e-10
6.24571e-10
7.76587e-10
9.63442e-10
1.19258e-09
1.47292e-09
1.81509e-09
2.23175e-09
2.73793e-09
3.35139e-09
4.09316e-09
4.98792e-09
6.06472e-09
7.35752e-09
8.90599e-09
1.07563e-08
1.29621e-08
1.55856e-08
1.86983e-08
2.2383e-08
2.67345e-08
3.18615e-08
3.78879e-08
4.49552e-08
5.32239e-08
6.28761e-08
7.41174e-08
8.71796e-08
1.02323e-07
1.1984e-07
1.40056e-07
1.63337e-07
1.90088e-07
2.20759e-07
2.55851e-07
2.95913e-07
3.41553e-07
3.93435e-07
4.52288e-07
5.18905e-07
5.94147e-07
6.78939e-07
7.74275e-07
8.81208e-07
1.00084e-06
1.13433e-06
1.28285e-06
1.44758e-06
1.62968e-06
1.83026e-06
2.05035e-06
2.29088e-06
2.55265e-06
2.83857e-06
3.14744e-06
3.47694e-06
3.82376e-06
4.18042e-06
4.5307e-06
4.84002e-06
5.03585e-06
4.97969e-06
1.5571e-14
2.11747e-14
2.88485e-14
3.92178e-14
5.31974e-14
7.20039e-14
9.72497e-14
1.31067e-13
1.76267e-13
2.36552e-13
3.16781e-13
4.23322e-13
5.64497e-13
7.51158e-13
9.97422e-13
1.32161e-12
1.74746e-12
2.3056e-12
3.03555e-12
3.98809e-12
5.22834e-12
6.83967e-12
8.92848e-12
1.16302e-11
1.51171e-11
1.96071e-11
2.53762e-11
3.2772e-11
4.22322e-11
5.43057e-11
6.96801e-11
8.92135e-11
1.13976e-10
1.45295e-10
1.84818e-10
2.34582e-10
2.97098e-10
3.75454e-10
4.73441e-10
5.95696e-10
7.47883e-10
9.36893e-10
1.1711e-09
1.46064e-09
1.81776e-09
2.25721e-09
2.79674e-09
3.45757e-09
4.26511e-09
5.24962e-09
6.44709e-09
7.90015e-09
9.65925e-09
1.17838e-08
1.43437e-08
1.74209e-08
2.11113e-08
2.55265e-08
3.07966e-08
3.70722e-08
4.45277e-08
5.33641e-08
6.38128e-08
7.61389e-08
9.0646e-08
1.0768e-07
1.27635e-07
1.50958e-07
1.78154e-07
2.09793e-07
2.46518e-07
2.8905e-07
3.38196e-07
3.94856e-07
4.60033e-07
5.34838e-07
6.20499e-07
7.1837e-07
8.29931e-07
9.56801e-07
1.10073e-06
1.26362e-06
1.44747e-06
1.65442e-06
1.88672e-06
2.14667e-06
2.43663e-06
2.75893e-06
3.11587e-06
3.50957e-06
3.94201e-06
4.41503e-06
4.93339e-06
5.49422e-06
6.09455e-06
6.7257e-06
7.36661e-06
7.96966e-06
8.42982e-06
8.52842e-06
8.95933e-15
1.22525e-14
1.6788e-14
2.295e-14
3.13044e-14
4.26094e-14
5.78769e-14
7.84547e-14
1.06134e-13
1.43291e-13
1.93069e-13
2.5962e-13
3.48413e-13
4.66641e-13
6.23738e-13
8.32056e-13
1.10773e-12
1.47177e-12
1.95153e-12
2.58249e-12
3.41055e-12
4.49506e-12
5.91247e-12
7.76111e-12
1.01672e-11
1.32921e-11
1.73424e-11
2.25809e-11
2.9342e-11
3.805e-11
4.92422e-11
6.35968e-11
8.19689e-11
1.05433e-10
1.35337e-10
1.73366e-10
2.21627e-10
2.82739e-10
3.5996e-10
4.57325e-10
5.79822e-10
7.33605e-10
9.26244e-10
1.16703e-09
1.46733e-09
1.84103e-09
2.30505e-09
2.87994e-09
3.5906e-09
4.46711e-09
5.54578e-09
6.87022e-09
8.49276e-09
1.0476e-08
1.28945e-08
1.5837e-08
1.9409e-08
2.3735e-08
2.8962e-08
3.52632e-08
4.28413e-08
5.19341e-08
6.28184e-08
7.58169e-08
9.13034e-08
1.09711e-07
1.31538e-07
1.57358e-07
1.87831e-07
2.23708e-07
2.65846e-07
3.15221e-07
3.72936e-07
4.40239e-07
5.18534e-07
6.09396e-07
7.14587e-07
8.36067e-07
9.7601e-07
1.13681e-06
1.3211e-06
1.53174e-06
1.77183e-06
2.0447e-06
2.35389e-06
2.7031e-06
3.09619e-06
3.5371e-06
4.02972e-06
4.57784e-06
5.18495e-06
5.8543e-06
6.58893e-06
7.39439e-06
8.26838e-06
9.20429e-06
1.01819e-05
1.11508e-05
1.19927e-05
1.24355e-05
4.33775e-15
5.96323e-15
8.21254e-15
1.12819e-14
1.54627e-14
2.11474e-14
2.88629e-14
3.93154e-14
5.34488e-14
7.2523e-14
9.82159e-14
1.32758e-13
1.79106e-13
2.41177e-13
3.24143e-13
4.34823e-13
5.82189e-13
7.7802e-13
1.03775e-12
1.38156e-12
1.83579e-12
2.43473e-12
3.22295e-12
4.25827e-12
5.61549e-12
7.39125e-12
9.71013e-12
1.27324e-11
1.66637e-11
2.17675e-11
2.83809e-11
3.69337e-11
4.79728e-11
6.21936e-11
8.04769e-11
1.03938e-10
1.33983e-10
1.72385e-10
2.21371e-10
2.83737e-10
3.62978e-10
4.63461e-10
5.90627e-10
7.51238e-10
9.53687e-10
1.20835e-09
1.52806e-09
1.92861e-09
2.4294e-09
3.05425e-09
3.83229e-09
4.79905e-09
5.99781e-09
7.48114e-09
9.31273e-09
1.15696e-08
1.43444e-08
1.7749e-08
2.19169e-08
2.70084e-08
3.32144e-08
4.07618e-08
4.99204e-08
6.10088e-08
7.44035e-08
9.05472e-08
1.0996e-07
1.33249e-07
1.61125e-07
1.94412e-07
2.34069e-07
2.81202e-07
3.37089e-07
4.03197e-07
4.81209e-07
5.73046e-07
6.80894e-07
8.0723e-07
9.54853e-07
1.12691e-06
1.32691e-06
1.55878e-06
1.82683e-06
2.13581e-06
2.49087e-06
2.89755e-06
3.36173e-06
3.8896e-06
4.48751e-06
5.16182e-06
5.91863e-06
6.76365e-06
7.70195e-06
8.74116e-06
9.88775e-06
1.11412e-05
1.24887e-05
1.38881e-05
1.5227e-05
1.62203e-05
1.81301e-15
2.50422e-15
3.46462e-15
4.77997e-15
6.57863e-15
9.03428e-15
1.23812e-14
1.69348e-14
2.31189e-14
3.15019e-14
4.2845e-14
5.81649e-14
7.88175e-14
1.06608e-13
1.43932e-13
1.9397e-13
2.60928e-13
3.50359e-13
4.69586e-13
6.28243e-13
8.3898e-13
1.11838e-12
1.48812e-12
1.97651e-12
2.62046e-12
3.46793e-12
4.58121e-12
6.04102e-12
7.95171e-12
1.0448e-11
1.37034e-11
1.79412e-11
2.34477e-11
3.05899e-11
3.98367e-11
5.17869e-11
6.72032e-11
8.7055e-11
1.12573e-10
1.45315e-10
1.87252e-10
2.40871e-10
3.09301e-10
3.96481e-10
5.07348e-10
6.48088e-10
8.2643e-10
1.05202e-09
1.33685e-09
1.69584e-09
2.14749e-09
2.71468e-09
3.42566e-09
4.31526e-09
5.42631e-09
6.81135e-09
8.53472e-09
1.0675e-08
1.33279e-08
1.66098e-08
2.06622e-08
2.56559e-08
3.17974e-08
3.93355e-08
4.8569e-08
5.98565e-08
7.36265e-08
9.03906e-08
1.10757e-07
1.35449e-07
1.65322e-07
2.01387e-07
2.44836e-07
2.97071e-07
3.59734e-07
4.34749e-07
5.24356e-07
6.31166e-07
7.58208e-07
9.08989e-07
1.08756e-06
1.29857e-06
1.54737e-06
1.84005e-06
2.18351e-06
2.58554e-06
3.05486e-06
3.60108e-06
4.23475e-06
4.96714e-06
5.81004e-06
6.77534e-06
7.87436e-06
9.11709e-06
1.05216e-05
1.21015e-05
1.38583e-05
1.57657e-05
1.7725e-05
1.94588e-05
6.66997e-16
9.25157e-16
1.28518e-15
1.77991e-15
2.45884e-15
3.38919e-15
4.66195e-15
6.40017e-15
8.76989e-15
1.19948e-14
1.63756e-14
2.23159e-14
3.03562e-14
4.12194e-14
5.58699e-14
7.55923e-14
1.02095e-13
1.37644e-13
1.85241e-13
2.48855e-13
3.33722e-13
4.46741e-13
5.96979e-13
7.96337e-13
1.0604e-12
1.40956e-12
1.87043e-12
2.47767e-12
3.27639e-12
4.32512e-12
5.69977e-12
7.49848e-12
9.84805e-12
1.29119e-11
1.69004e-11
2.20839e-11
2.8809e-11
3.75196e-11
4.87831e-11
6.33238e-11
8.20641e-11
1.06177e-10
1.37153e-10
1.7688e-10
2.27749e-10
2.92777e-10
3.75773e-10
4.8153e-10
6.16075e-10
7.86968e-10
1.00368e-09
1.27805e-09
1.62486e-09
2.06252e-09
2.61393e-09
3.30753e-09
4.17852e-09
5.27048e-09
6.63718e-09
8.34494e-09
1.04753e-08
1.31285e-08
1.64272e-08
2.05218e-08
2.55956e-08
3.18725e-08
3.96249e-08
4.91834e-08
6.09493e-08
7.54078e-08
9.31453e-08
1.14868e-07
1.41429e-07
1.73849e-07
2.13354e-07
2.61412e-07
3.19781e-07
3.90562e-07
4.76266e-07
5.79893e-07
7.05026e-07
8.55952e-07
1.0378e-06
1.25671e-06
1.52006e-06
1.83669e-06
2.21728e-06
2.67474e-06
3.22463e-06
3.88568e-06
4.68037e-06
5.63527e-06
6.78016e-06
8.14564e-06
9.75785e-06
1.16628e-05
1.3891e-05
1.6437e-05
1.92005e-05
2.18661e-05
2.18251e-16
3.03797e-16
4.23549e-16
5.88656e-16
8.16029e-16
1.1287e-15
1.55796e-15
2.14628e-15
2.9512e-15
4.05053e-15
5.54927e-15
7.58889e-15
1.03596e-14
1.41168e-14
1.92024e-14
2.60741e-14
3.53422e-14
4.78204e-14
6.45905e-14
8.70886e-14
1.17218e-13
1.57494e-13
2.11241e-13
2.8284e-13
3.78053e-13
5.04452e-13
6.71966e-13
8.93589e-13
1.1863e-12
1.57227e-12
2.08033e-12
2.74801e-12
3.62401e-12
4.77143e-12
6.27192e-12
8.23096e-12
1.07846e-11
1.41079e-11
1.84262e-11
2.40285e-11
3.12853e-11
4.06705e-11
5.27898e-11
6.84157e-11
8.85322e-11
1.1439e-10
1.47579e-10
1.9011e-10
2.44534e-10
3.14068e-10
4.02774e-10
5.15766e-10
6.59471e-10
8.41958e-10
1.07334e-09
1.36628e-09
1.73659e-09
2.20404e-09
2.79321e-09
3.53471e-09
4.46652e-09
5.63575e-09
7.10072e-09
8.93349e-09
1.12231e-08
1.40793e-08
1.76373e-08
2.2063e-08
2.75603e-08
3.43788e-08
4.28242e-08
5.32696e-08
6.61709e-08
8.20829e-08
1.01681e-07
1.25786e-07
1.55397e-07
1.91728e-07
2.36259e-07
2.90787e-07
3.5751e-07
4.39115e-07
5.38905e-07
6.60961e-07
8.10357e-07
9.93476e-07
1.21848e-06
1.49603e-06
1.84043e-06
2.27143e-06
2.8177e-06
3.52161e-06
4.44433e-06
5.66918e-06
7.29311e-06
9.40247e-06
1.21298e-05
1.55229e-05
1.94383e-05
2.33393e-05
6.41041e-17
8.94783e-17
1.25172e-16
1.74567e-16
2.42837e-16
3.37056e-16
4.66865e-16
6.45404e-16
8.90531e-16
1.22649e-15
1.68612e-15
2.31381e-15
3.16949e-15
4.33389e-15
5.91554e-15
8.06016e-15
1.09629e-14
1.48849e-14
2.01745e-14
2.72962e-14
3.68676e-14
4.97091e-14
6.6908e-14
8.99038e-14
1.20598e-13
1.61497e-13
2.15905e-13
2.88159e-13
3.83957e-13
5.10759e-13
6.78328e-13
8.99408e-13
1.19062e-12
1.57359e-12
2.07644e-12
2.73565e-12
3.5985e-12
4.72614e-12
6.19758e-12
8.11469e-12
1.06087e-11
1.38483e-11
1.805e-11
2.34916e-11
3.05283e-11
3.96143e-11
5.13287e-11
6.64097e-11
8.57957e-11
1.10678e-10
1.42568e-10
1.83376e-10
2.35519e-10
3.02044e-10
3.86794e-10
4.94611e-10
6.31578e-10
8.05329e-10
1.02543e-09
1.30383e-09
1.65545e-09
2.09892e-09
2.65742e-09
3.35981e-09
4.24196e-09
5.3484e-09
6.73426e-09
8.46774e-09
1.06331e-08
1.33342e-08
1.6699e-08
2.08848e-08
2.60849e-08
3.25361e-08
4.0528e-08
5.04152e-08
6.26314e-08
7.77064e-08
9.62882e-08
1.19169e-07
1.47317e-07
1.8192e-07
2.24438e-07
2.76665e-07
3.40815e-07
4.1962e-07
5.16474e-07
6.35658e-07
7.82732e-07
9.65477e-07
1.19664e-06
1.50079e-06
1.92788e-06
2.5755e-06
3.65438e-06
5.41589e-06
8.25394e-06
1.25597e-05
1.81921e-05
2.39385e-05
1.93402e-17
2.70455e-17
3.79758e-17
5.31747e-17
7.42736e-17
1.03514e-16
1.43967e-16
1.99832e-16
2.76843e-16
3.82815e-16
5.28374e-16
7.27949e-16
1.00109e-15
1.37424e-15
1.88311e-15
2.57581e-15
3.51708e-15
4.79383e-15
6.52256e-15
8.8592e-15
1.2012e-14
1.62586e-14
2.19686e-14
2.96334e-14
3.99045e-14
5.36449e-14
7.19955e-14
9.64623e-14
1.2903e-13
1.72309e-13
2.2973e-13
3.05789e-13
4.06373e-13
5.3918e-13
7.14254e-13
9.44684e-13
1.2475e-12
1.64483e-12
2.16536e-12
2.84625e-12
3.73555e-12
4.89527e-12
6.40536e-12
8.36866e-12
1.09173e-11
1.42209e-11
1.84964e-11
2.40212e-11
3.11496e-11
4.03328e-11
5.21449e-11
6.73152e-11
8.6769e-11
1.11678e-10
1.43527e-10
1.8419e-10
2.36026e-10
3.02006e-10
3.8586e-10
4.92264e-10
6.27067e-10
7.97582e-10
1.01295e-09
1.2846e-09
1.62675e-09
2.05708e-09
2.59753e-09
3.27529e-09
4.12398e-09
5.18512e-09
6.5099e-09
8.1613e-09
1.02167e-08
1.2771e-08
1.59403e-08
1.98664e-08
2.4723e-08
3.07218e-08
3.81214e-08
4.72372e-08
5.84539e-08
7.2241e-08
8.91721e-08
1.09947e-07
1.35419e-07
1.66622e-07
2.04794e-07
2.51394e-07
3.08123e-07
3.7704e-07
4.61276e-07
5.68944e-07
7.2217e-07
9.64618e-07
1.39705e-06
2.20637e-06
3.94701e-06
8.03542e-06
1.55048e-05
2.37887e-05
4.42149e-17
6.51547e-17
1.03624e-16
1.52142e-16
2.08013e-16
2.67871e-16
3.27647e-16
3.832e-16
4.31116e-16
4.69382e-16
4.97878e-16
5.18692e-16
5.36376e-16
5.5851e-16
5.97413e-16
6.74841e-16
8.34067e-16
1.16927e-15
1.88133e-15
3.20656e-15
8.36908e-16
1.12357e-15
1.58427e-15
2.14736e-15
2.77252e-15
3.41515e-15
4.02837e-15
4.56909e-15
5.00497e-15
5.31968e-15
5.51613e-15
5.61754e-15
5.66726e-15
5.73058e-15
5.90317e-15
6.33783e-15
7.31366e-15
9.39948e-15
1.37411e-14
2.14942e-14
1.50306e-14
1.86618e-14
2.3793e-14
2.97644e-14
3.61393e-14
4.24212e-14
4.81222e-14
5.2831e-14
5.62692e-14
5.83277e-14
5.90803e-14
5.87754e-14
5.78152e-14
5.67462e-14
5.62818e-14
5.74271e-14
6.18157e-14
7.25042e-14
9.52373e-14
1.34573e-13
2.4657e-13
2.86617e-13
3.38979e-13
3.9615e-13
4.54065e-13
5.08156e-13
5.5406e-13
5.88307e-13
6.08811e-13
6.1509e-13
6.08271e-13
5.90845e-13
5.66405e-13
5.39389e-13
5.14958e-13
4.99348e-13
5.01039e-13
5.33806e-13
6.21225e-13
7.76462e-13
3.66481e-12
4.02944e-12
4.48626e-12
4.95518e-12
5.39949e-12
5.7822e-12
6.07007e-12
6.23848e-12
6.27473e-12
6.17952e-12
5.96631e-12
5.65789e-12
5.28462e-12
4.88137e-12
4.48469e-12
4.13179e-12
3.86142e-12
3.72099e-12
3.78417e-12
4.11177e-12
4.89503e-11
5.13421e-11
5.43682e-11
5.72634e-11
5.97279e-11
6.14955e-11
6.23484e-11
6.21447e-11
6.08304e-11
5.84464e-11
5.51257e-11
5.10553e-11
4.64718e-11
4.16354e-11
3.67999e-11
3.21915e-11
2.79791e-11
2.42814e-11
2.13073e-11
1.99121e-11
5.81619e-10
5.86133e-10
5.95003e-10
6.01809e-10
6.04386e-10
6.01066e-10
5.90607e-10
5.72386e-10
5.46318e-10
5.12891e-10
4.73138e-10
4.28388e-10
3.80271e-10
3.30547e-10
2.8096e-10
2.33039e-10
1.87825e-10
1.46035e-10
1.09591e-10
8.78652e-11
6.07238e-09
5.91478e-09
5.79115e-09
5.65567e-09
5.49486e-09
5.29971e-09
5.06383e-09
4.78476e-09
4.46345e-09
4.10308e-09
3.70852e-09
3.28717e-09
2.8487e-09
2.4037e-09
1.96382e-09
1.54111e-09
1.14677e-09
7.93938e-10
5.0882e-10
3.52067e-10
5.48694e-08
5.19005e-08
4.92273e-08
4.66022e-08
4.3958e-08
4.125e-08
3.84446e-08
3.55155e-08
3.24564e-08
2.927e-08
2.59671e-08
2.2572e-08
1.91239e-08
1.5678e-08
1.23066e-08
9.11334e-09
6.22768e-09
3.82447e-09
2.11084e-09
1.27651e-09
4.2085e-07
3.87972e-07
3.57426e-07
3.28808e-07
3.01832e-07
2.76182e-07
2.51528e-07
2.27577e-07
2.04101e-07
1.80911e-07
1.57841e-07
1.34835e-07
1.11882e-07
8.92531e-08
6.73186e-08
4.69464e-08
2.93764e-08
1.60622e-08
7.76016e-09
4.17184e-09
1.96542e-06
1.78323e-06
1.60861e-06
1.44782e-06
1.30124e-06
1.16817e-06
1.04683e-06
9.35194e-07
8.31177e-07
7.32799e-07
6.38142e-07
5.45745e-07
4.54218e-07
3.63341e-07
2.73715e-07
1.88366e-07
1.13559e-07
5.79196e-08
2.52006e-08
1.21654e-08
4.49781e-06
4.08348e-06
3.67906e-06
3.306e-06
2.96849e-06
2.66519e-06
2.39207e-06
2.14378e-06
1.91462e-06
1.69886e-06
1.49154e-06
1.28835e-06
1.08574e-06
8.82107e-07
6.7858e-07
4.80824e-07
3.01048e-07
1.5838e-07
6.93207e-08
3.1763e-08
7.91487e-06
7.22518e-06
6.52983e-06
5.88049e-06
5.29194e-06
4.76549e-06
4.29542e-06
3.87205e-06
3.48374e-06
3.119e-06
2.76755e-06
2.4205e-06
2.07069e-06
1.71407e-06
1.35148e-06
9.91169e-07
6.51936e-07
3.64546e-07
1.66979e-07
7.62115e-08
1.19354e-05
1.10017e-05
1.00045e-05
9.04818e-06
8.17316e-06
7.39169e-06
6.69832e-06
6.07833e-06
5.51323e-06
4.98452e-06
4.47385e-06
3.96521e-06
3.44601e-06
2.90793e-06
2.34994e-06
1.78171e-06
1.22824e-06
7.33418e-07
3.60073e-07
1.69442e-07
1.61827e-05
1.51375e-05
1.39005e-05
1.26524e-05
1.14853e-05
1.04383e-05
9.5137e-06
8.69386e-06
7.95264e-06
7.26172e-06
6.59318e-06
5.92206e-06
5.22757e-06
4.49446e-06
3.71751e-06
2.90581e-06
2.08913e-06
1.32469e-06
7.0238e-07
3.45375e-07
2.02363e-05
1.93184e-05
1.79911e-05
1.65246e-05
1.50972e-05
1.37993e-05
1.26539e-05
1.16457e-05
1.07423e-05
9.90496e-06
9.09477e-06
8.27525e-06
7.41453e-06
6.48795e-06
5.48275e-06
4.40438e-06
3.28541e-06
2.19539e-06
1.25347e-06
6.51737e-07
2.3706e-05
2.3232e-05
2.20467e-05
2.04971e-05
1.88841e-05
1.73789e-05
1.60424e-05
1.48708e-05
1.38293e-05
1.28707e-05
1.19445e-05
1.10012e-05
9.99548e-06
8.88991e-06
7.6605e-06
6.30518e-06
4.85612e-06
3.39436e-06
2.06937e-06
1.14526e-06
2.63205e-05
2.66209e-05
2.58627e-05
2.44195e-05
2.27403e-05
2.11022e-05
1.96229e-05
1.83235e-05
1.71748e-05
1.6125e-05
1.51133e-05
1.40768e-05
1.2955e-05
1.16943e-05
1.02554e-05
8.62432e-06
6.82831e-06
4.95831e-06
3.19641e-06
1.88565e-06
2.80057e-05
2.93403e-05
2.92958e-05
2.81852e-05
2.65964e-05
2.49251e-05
2.33655e-05
2.19801e-05
2.07573e-05
1.96471e-05
1.85815e-05
1.74846e-05
1.62791e-05
1.48927e-05
1.32667e-05
1.13697e-05
9.21924e-06
6.91282e-06
4.67006e-06
2.92673e-06
2.89321e-05
3.14109e-05
3.23226e-05
3.17719e-05
3.04391e-05
2.88413e-05
2.72672e-05
2.58382e-05
2.45727e-05
2.34305e-05
2.23403e-05
2.12145e-05
1.99582e-05
1.84778e-05
1.66915e-05
1.45455e-05
1.20406e-05
9.27637e-06
6.51548e-06
4.30747e-06
7.92887e-176
6.18398e-176
4.24367e-176
2.76086e-176
1.84007e-176
1.3591e-176
1.15613e-176
1.10123e-176
1.10939e-176
1.134e-176
1.15946e-176
1.1998e-176
1.30563e-176
1.58044e-176
2.20439e-176
3.45212e-176
5.66346e-176
9.08126e-176
1.34348e-175
1.72375e-175
4.28852e-174
3.30113e-174
2.24177e-174
1.44684e-174
9.59623e-175
7.08117e-175
6.03594e-175
5.76528e-175
5.82024e-175
5.95659e-175
6.09354e-175
6.30605e-175
6.86339e-175
8.31872e-175
1.16444e-174
1.83447e-174
3.03305e-174
4.90837e-174
7.34061e-174
9.54416e-174
2.25103e-172
1.70873e-172
1.14756e-172
7.34557e-173
4.84871e-173
3.57547e-173