/*--------------------------------*- C++ -*----------------------------------*\
| =========                 |                                                 |
| \\      /  F ield         | OpenFOAM: The Open Source CFD Toolbox           |
|  \\    /   O peration     | Version:  2.1.0                                 |
|   \\  /    A nd           | Web:      www.OpenFOAM.org                      |
|    \\/     M anipulation  |                                                 |
\*---------------------------------------------------------------------------*/
FoamFile
{
    version     2.0;
    format      ascii;
    class       volScalarField;
    location    "0.16";
    object      k;
}
// * * * * * * * * * * * * * * * * * * * * * * * * * * * * * * * * * * * * * //

dimensions      [0 2 -2 0 0 0 0];

internalField   nonuniform List<scalar> 
6400
(
0.0288291
0.0289738
0.029019
0.0290749
0.0290987
0.0291298
0.0291416
0.029155
0.0291577
0.029159
0.0291538
0.0291493
0.029135
0.0291246
0.0291025
0.0290866
0.029058
0.0290373
0.0290033
0.0289781
0.0289395
0.0289102
0.0288676
0.0288345
0.0287885
0.0287515
0.0287026
0.0286617
0.0286103
0.0285654
0.0285116
0.0284625
0.0284063
0.0283531
0.0282943
0.0282371
0.028175
0.0281132
0.0280467
0.0279791
0.0279064
0.027831
0.0277501
0.0276646
0.0275728
0.0274747
0.0273692
0.0272557
0.0271338
0.027002
0.0268597
0.0267035
0.0265324
0.0263474
0.0261579
0.0259552
0.0257465
0.0255257
0.0252974
0.0250596
0.0248125
0.0245558
0.0242887
0.0240109
0.0237232
0.0234224
0.0231061
0.0227776
0.0224305
0.0220696
0.0216889
0.021293
0.0208771
0.0204455
0.0199951
0.0195307
0.0190514
0.0185618
0.0180628
0.0175569
0.0170419
0.0165077
0.0159377
0.0153642
0.0147675
0.0141432
0.0134782
0.0127517
0.0119401
0.0110046
0.00989872
0.00854564
0.00686901
0.00484997
0.00265621
0.00167045
0.00209272
0.00419368
0.00618591
0.00682253
0.0484916
0.0487929
0.0489169
0.0491269
0.0492452
0.049458
0.0495804
0.0497904
0.0499208
0.0501262
0.0502645
0.0504666
0.0506109
0.0508107
0.0509599
0.0511583
0.0513127
0.0515103
0.05167
0.0518676
0.0520339
0.0522336
0.0524069
0.0526099
0.0527906
0.0529979
0.0531876
0.0533995
0.0535981
0.0538154
0.0540234
0.0542465
0.0544642
0.054694
0.0549219
0.0551597
0.0553981
0.0556452
0.0558946
0.056152
0.0564102
0.0566733
0.0569366
0.0572012
0.0574648
0.0577256
0.0579819
0.0582312
0.0584723
0.0587039
0.0589292
0.0591412
0.0593347
0.0595095
0.0596854
0.0598448
0.0599962
0.0601294
0.0602457
0.0603483
0.0604365
0.0605062
0.0605592
0.0605855
0.0605957
0.0605891
0.0605393
0.0604642
0.0603424
0.060181
0.0599638
0.0596925
0.0593533
0.0589454
0.0584569
0.0578874
0.0572269
0.0564772
0.0556321
0.0546962
0.0536698
0.0525532
0.0513231
0.0499281
0.0483721
0.0466079
0.0446186
0.0423516
0.0397742
0.036837
0.0335281
0.0298477
0.025878
0.0218209
0.0177197
0.0137833
0.0107267
0.00860718
0.00720947
0.00599004
0.0539905
0.0544881
0.0547009
0.0550691
0.0552948
0.0556405
0.0558738
0.056203
0.056443
0.0567603
0.0570054
0.0573148
0.0575638
0.057868
0.0581201
0.0584203
0.0586754
0.0589722
0.05923
0.0595238
0.0597856
0.0600798
0.0603468
0.060642
0.060913
0.0612092
0.061486
0.0617837
0.0620664
0.0623666
0.062655
0.0629575
0.0632512
0.0635547
0.0638517
0.0641553
0.0644536
0.0647557
0.0650526
0.0653506
0.0656451
0.065938
0.0662259
0.0665079
0.0667819
0.0670436
0.067292
0.0675205
0.067721
0.067888
0.0680356
0.0681687
0.0682816
0.068378
0.0684541
0.06851
0.068542
0.0685559
0.0685583
0.0685152
0.0684489
0.0683407
0.0682012
0.0680174
0.0677956
0.0675246
0.0672073
0.0668379
0.0664107
0.0659225
0.0653635
0.0647298
0.0640095
0.0631981
0.0622833
0.0612605
0.0601183
0.0588542
0.0574588
0.0559329
0.0542707
0.0524751
0.0505469
0.04851
0.0463559
0.044099
0.0417302
0.0392473
0.0366305
0.0338602
0.0309005
0.0277232
0.0242983
0.020653
0.0168527
0.0131399
0.010036
0.00755592
0.00568403
0.00389882
0.0583362
0.05892
0.0591698
0.0596154
0.0598941
0.0603055
0.0605948
0.0609812
0.0612753
0.0616432
0.0619385
0.0622939
0.062589
0.0629345
0.0632285
0.0635651
0.0638565
0.0641824
0.0644679
0.0647804
0.0650546
0.0653579
0.0656322
0.0659295
0.0662014
0.0664954
0.0667626
0.0670461
0.0673078
0.0675804
0.0678328
0.068092
0.0683342
0.068577
0.0688026
0.0690266
0.0692328
0.0694333
0.0696159
0.0697881
0.0699412
0.0700791
0.0701967
0.0702945
0.0703705
0.0704172
0.0704385
0.0704433
0.0704097
0.0703496
0.0702564
0.070132
0.0699696
0.0697699
0.0695271
0.0692393
0.0689014
0.06851
0.0680593
0.0675498
0.0669765
0.0663353
0.0656245
0.0648381
0.0639768
0.0630342
0.0620139
0.06091
0.0597268
0.0584613
0.0571167
0.0556943
0.0541963
0.0526272
0.0509887
0.0492847
0.0475168
0.0456886
0.0438024
0.0418622
0.0398694
0.0378276
0.0357378
0.0336077
0.0314387
0.0292385
0.0269977
0.024735
0.0224867
0.0202613
0.0180331
0.015816
0.0136607
0.011569
0.00952616
0.00762389
0.00587104
0.00441195
0.00342898
0.002979
0.0598118
0.0603813
0.0606193
0.0610557
0.0613139
0.0617099
0.0619697
0.0623319
0.0625876
0.0629192
0.0631657
0.0634729
0.0637088
0.0639923
0.064217
0.0644778
0.0646908
0.0649278
0.0651241
0.0653408
0.0655195
0.0657126
0.065875
0.0660426
0.0661813
0.0663244
0.0664351
0.0665475
0.0666306
0.0667083
0.0667567
0.0667884
0.0668
0.0668004
0.066759
0.066705
0.0666125
0.0664986
0.0663466
0.0661656
0.0659457
0.0656905
0.0653946
0.0650576
0.0646781
0.064252
0.0637826
0.0632637
0.0626971
0.0620814
0.061415
0.0606998
0.0599321
0.0591148
0.0582449
0.0573247
0.0563539
0.0553366
0.0542699
0.0531583
0.0519997
0.0507982
0.0495535
0.0482684
0.0469449
0.0455846
0.0441913
0.0427648
0.0413097
0.0398253
0.0383172
0.0367866
0.0352304
0.0336561
0.0320611
0.0304552
0.0288364
0.0272176
0.0256004
0.023991
0.0223878
0.0208036
0.019254
0.0177534
0.0162901
0.0148557
0.0134642
0.0121684
0.0109872
0.00985843
0.00869115
0.00762417
0.00673284
0.00587817
0.00499073
0.0042211
0.00360778
0.00320201
0.00303053
0.00300886
0.0569666
0.0573444
0.0574988
0.0577832
0.0579377
0.0581766
0.0583104
0.0585101
0.0586212
0.058776
0.0588578
0.0589712
0.0590263
0.0590918
0.0591217
0.0591373
0.0591403
0.0591209
0.0590721
0.0590152
0.0589231
0.0588176
0.058685
0.0585278
0.0583446
0.0581388
0.0578973
0.0576363
0.0573387
0.0570149
0.0566554
0.0562727
0.055853
0.055407
0.0549227
0.0544098
0.0538585
0.0532774
0.0526572
0.0520063
0.0513182
0.0505982
0.0498428
0.0490555
0.0482354
0.0473838
0.0465028
0.0455914
0.0446535
0.0436882
0.0426985
0.0416854
0.0406496
0.0395949
0.0385156
0.0374182
0.0363004
0.0351684
0.0340233
0.0328668
0.0317011
0.0305274
0.0293487
0.0281653
0.0269808
0.0257944
0.0246102
0.0234271
0.0222508
0.0210812
0.019925
0.0187803
0.0176955
0.016626
0.0156207
0.0146331
0.0137123
0.0128143
0.0119757
0.0111613
0.0104069
0.00968631
0.00902403
0.00839094
0.00780267
0.00724506
0.00673522
0.00626071
0.0058173
0.0053928
0.00498933
0.00462325
0.00427618
0.00395099
0.0036476
0.00340442
0.00322285
0.00314323
0.00312842
0.00322121
0.0485682
0.0485858
0.0485841
0.0485753
0.0485451
0.0484809
0.0483971
0.0483002
0.0481707
0.0480188
0.0478393
0.047647
0.0474172
0.0471735
0.0469003
0.04661
0.0462899
0.0459511
0.0455864
0.0452031
0.0447916
0.0443642
0.0439122
0.0434396
0.0429476
0.0424323
0.0418905
0.0413303
0.0407425
0.0401352
0.0395037
0.0388526
0.0381771
0.037485
0.0367687
0.0360365
0.0352832
0.0345151
0.0337273
0.0329275
0.0321109
0.0312852
0.0304462
0.0296001
0.0287437
0.0278827
0.027015
0.0261443
0.0252707
0.0243963
0.0235221
0.0226503
0.0217811
0.0209176
0.0200759
0.0192496
0.0184485
0.017659
0.0168966
0.0161471
0.0154269
0.0147225
0.0140475
0.013391
0.012763
0.0121536
0.0115728
0.0110129
0.0104822
0.00997422
0.00949503
0.00903865
0.0086127
0.00820718
0.00783162
0.00747433
0.0071443
0.00682968
0.00653844
0.00626333
0.00600784
0.00576745
0.00554132
0.005328
0.0051244
0.00493345
0.00474862
0.00457434
0.00440288
0.0042417
0.00408382
0.00393978
0.00380108
0.00368262
0.00358012
0.00352386
0.00349873
0.00352033
0.00368505
0.00377324
0.0358069
0.0355027
0.0353648
0.0350831
0.0348872
0.0345762
0.034314
0.0339842
0.0336633
0.0332959
0.0329264
0.0325266
0.0321118
0.0316718
0.0312205
0.0307458
0.0302534
0.0297458
0.0292191
0.0286779
0.028117
0.0275466
0.0269553
0.0263537
0.0257345
0.0251165
0.0244887
0.0238668
0.0232375
0.0226166
0.0219924
0.0213744
0.0207559
0.0201475
0.0195411
0.0189479
0.0183601
0.0177863
0.0172218
0.0166728
0.0161338
0.0156111
0.0150997
0.0146059
0.0141246
0.0136622
0.0132129
0.012783
0.012368
0.011971
0.0115911
0.011229
0.0108838
0.0105572
0.0102495
0.00995999
0.00968837
0.00943261
0.00919469
0.00896971
0.00876244
0.00856624
0.00838623
0.00821641
0.008061
0.0079163
0.00778497
0.00766299
0.00755263
0.00745065
0.00735855
0.00727346
0.00719655
0.007125
0.00705998
0.0069986
0.00694185
0.00688709
0.00683524
0.00678469
0.00673497
0.00668528
0.00663381
0.00658067
0.0065223
0.0064584
0.00638494
0.00630237
0.00620704
0.00610046
0.00598139
0.0058542
0.00572215
0.00559539
0.00549049
0.00544105
0.00542925
0.0055463
0.00576612
0.00589191
0.0218603
0.0213512
0.021132
0.0206974
0.020434
0.0199939
0.0196873
0.0192499
0.018907
0.018467
0.0180995
0.0176605
0.0172763
0.016837
0.0164451
0.0160129
0.0156125
0.015193
0.0147935
0.0143847
0.0139919
0.0135978
0.0132163
0.0128389
0.012474
0.0121212
0.0117801
0.0114552
0.0111412
0.0108441
0.0105578
0.0102898
0.0100317
0.00979219
0.00956306
0.00935216
0.00915148
0.00896843
0.00879591
0.00863954
0.00849374
0.00836368
0.00824339
0.00813838
0.00804261
0.00796164
0.00788902
0.0078306
0.00778066
0.00774308
0.00771499
0.00769934
0.00769243
0.0076911
0.0077041
0.00772309
0.00775354
0.00779027
0.00783765
0.00789141
0.00795515
0.00802534
0.00810486
0.00819115
0.00828614
0.00838802
0.00849835
0.00861581
0.00874149
0.00887472
0.00901606
0.00916536
0.00932344
0.00948999
0.00966552
0.00985003
0.0100436
0.0102466
0.0104583
0.0106786
0.0109068
0.0111427
0.0113847
0.0116322
0.0118831
0.0121369
0.0123895
0.0126363
0.0128707
0.0130892
0.0132858
0.0134577
0.0136023
0.0137226
0.013825
0.0139399
0.0141362
0.0145124
0.0150045
0.0153869
0.0121175
0.0116454
0.0114524
0.011077
0.0108802
0.0105189
0.0103215
0.00998102
0.00978609
0.00946884
0.00928054
0.0089887
0.00881068
0.00854438
0.00837895
0.00814153
0.00798625
0.00778035
0.00763767
0.00745935
0.00733303
0.00718135
0.00707071
0.00694601
0.00685098
0.0067521
0.00667275
0.00659718
0.00653465
0.00647905
0.00643358
0.00639685
0.00636738
0.00634783
0.00633649
0.00633187
0.00633128
0.00634298
0.00635759
0.00638248
0.0064111
0.00644882
0.00649064
0.00654077
0.00659528
0.00665757
0.00672427
0.00679856
0.00687737
0.00696338
0.00705441
0.00715228
0.00725536
0.00736548
0.00748098
0.00760358
0.00773181
0.00786741
0.00800912
0.00815835
0.0083143
0.00847812
0.00864937
0.00882905
0.00901725
0.00921442
0.00942108
0.00963765
0.00986486
0.0101031
0.0103532
0.0106157
0.0108918
0.0111818
0.0114871
0.0118085
0.0121472
0.0125044
0.0128815
0.0132801
0.0137015
0.0141478
0.0146207
0.0151225
0.0156549
0.0162206
0.0168216
0.017464
0.0181525
0.0188943
0.0196975
0.0205698
0.0215215
0.022564
0.0237099
0.024968
0.0263262
0.0277123
0.0286907
0.0290848
0.0131156
0.0126553
0.0124657
0.0120949
0.0118948
0.0115343
0.0113284
0.0109823
0.0107719
0.0104439
0.0102366
0.0099267
0.00972376
0.0094384
0.00924122
0.0089809
0.00879229
0.00855929
0.00838164
0.00817328
0.0080118
0.00782779
0.00768103
0.00752366
0.0073925
0.00725949
0.0071458
0.00703625
0.00694047
0.00685263
0.00677585
0.00670845
0.00664981
0.0066016
0.0065608
0.00652937
0.00650604
0.0064923
0.00648597
0.00648441
0.00649288
0.00650781
0.00653042
0.00655954
0.00659569
0.00663835
0.00668754
0.00674338
0.00680509
0.00687373
0.00694785
0.00702885
0.00711531
0.00720867
0.00730736
0.0074131
0.00752425
0.00764205
0.00776556
0.00789567
0.00803175
0.00817499
0.00832446
0.00848132
0.00864505
0.00881639
0.00899528
0.00918203
0.00937698
0.00958021
0.00979222
0.0100131
0.0102434
0.0104832
0.0107333
0.0109938
0.0112654
0.0115484
0.0118435
0.0121515
0.0124728
0.0128088
0.0131604
0.0135291
0.0139164
0.0143246
0.0147561
0.0152143
0.0157029
0.0162246
0.0167827
0.0173898
0.0180516
0.0187842
0.0196034
0.0205359
0.0216096
0.0228252
0.0239166
0.0244209
0.0238839
0.023443
0.0232521
0.0228752
0.0226357
0.0222539
0.0219724
0.0215792
0.0212528
0.0208461
0.0204898
0.020068
0.0196817
0.019254
0.0188462
0.01841
0.0179876
0.0175506
0.0171183
0.0166801
0.0162483
0.0158133
0.0153831
0.0149575
0.014536
0.0141197
0.0137105
0.0133093
0.0129151
0.0125324
0.0121598
0.0118041
0.011459
0.0111323
0.0108164
0.010518
0.0102327
0.00996342
0.00970762
0.00946768
0.00924158
0.00903025
0.00883317
0.00865006
0.00848088
0.00832517
0.00818263
0.00805361
0.00793601
0.0078323
0.0077387
0.00765816
0.00758707
0.00752827
0.00747784
0.00743857
0.00740726
0.00738573
0.00737374
0.00736862
0.0073678
0.0073783
0.00739185
0.0074144
0.00743969
0.00747257
0.00750782
0.0075485
0.00759018
0.00763547
0.00768075
0.00772785
0.00777384
0.00781974
0.00786347
0.00790529
0.00794367
0.00797855
0.00800857
0.00803369
0.00805286
0.00806589
0.00807219
0.00807437
0.00807153
0.00806229
0.00805065
0.00803661
0.00802374
0.00801613
0.00801299
0.0080125
0.00803138
0.00806606
0.00813798
0.00825994
0.00847888
0.00882645
0.00932334
0.00967805
0.0377478
0.0375636
0.0374783
0.0373038
0.0371494
0.0369531
0.0367492
0.0365127
0.0362564
0.0359728
0.0356788
0.0353506
0.0350051
0.034639
0.0342524
0.0338421
0.0334113
0.0329658
0.0324925
0.0320056
0.0314958
0.0309711
0.0304218
0.0298606
0.0292762
0.0286798
0.0280613
0.0274329
0.0267823
0.0261208
0.0254446
0.0247723
0.0240906
0.0234151
0.0227344
0.0220609
0.0213871
0.0207179
0.0200532
0.0193958
0.0187462
0.0181068
0.017478
0.0168619
0.016257
0.0156661
0.0150883
0.0145278
0.013981
0.0134539
0.0129421
0.0124511
0.0119769
0.0115244
0.0110894
0.0106763
0.0102869
0.0099161
0.00956774
0.00923675
0.00892529
0.00863009
0.00835189
0.00808806
0.00783898
0.00760212
0.0073776
0.00716524
0.00696555
0.0067765
0.00659757
0.00642794
0.00626644
0.0061121
0.00596446
0.00582218
0.00568477
0.00555224
0.00542303
0.00529836
0.00517552
0.00505711
0.00493975
0.00482807
0.00471814
0.00461461
0.00451326
0.00441901
0.0043294
0.00425014
0.00417786
0.00411682
0.00406113
0.00402297
0.00400576
0.00400349
0.00408209
0.00421842
0.00443458
0.00453157
0.0500273
0.0501764
0.0502293
0.0503061
0.050339
0.0503598
0.0503635
0.0503527
0.0502993
0.0502289
0.0501401
0.0500294
0.0498817
0.0497262
0.0495371
0.0493312
0.0490912
0.0488412
0.0485543
0.0482523
0.0479207
0.0475689
0.0471893
0.0467894
0.0463625
0.0459167
0.0454416
0.0449502
0.0444319
0.0438938
0.0433327
0.0427454
0.0421314
0.0414957
0.040831
0.0401449
0.0394321
0.0386969
0.0379363
0.037155
0.0363482
0.0355222
0.0346729
0.0338048
0.0329183
0.0320162
0.0310974
0.0301661
0.0292211
0.0282661
0.0273007
0.0263285
0.0253493
0.0243657
0.0233787
0.0223897
0.021436
0.020488
0.0195768
0.0186796
0.0178195
0.0169729
0.0161621
0.0153712
0.0146157
0.0138845
0.0131894
0.0125199
0.0118837
0.0112751
0.010698
0.0101499
0.00963216
0.0091485
0.00869023
0.00826478
0.00785658
0.00747985
0.00711501
0.00678167
0.00645695
0.00616026
0.00586503
0.00559378
0.00532586
0.0050857
0.00484787
0.00462629
0.00439947
0.00419351
0.00400458
0.00383738
0.00366763
0.00351246
0.0033804
0.00328553
0.00324085
0.00323176
0.00336483
0.00345623
0.0576343
0.058098
0.0582869
0.0586335
0.0588243
0.0591275
0.0593071
0.059567
0.0597224
0.0599375
0.0600732
0.0602519
0.0603556
0.0604959
0.0605732
0.060674
0.0607236
0.0607773
0.0607997
0.0608086
0.0608067
0.0607716
0.0607215
0.0606511
0.0605521
0.0604402
0.0602928
0.0601296
0.0599348
0.0597149
0.0594652
0.0591885
0.058876
0.0585377
0.0581614
0.0577543
0.0573116
0.0568378
0.0563255
0.0557819
0.0551978
0.0545802
0.0539224
0.0532301
0.0524972
0.0517304
0.0509235
0.0500832
0.0492049
0.0482945
0.047349
0.0463732
0.0453664
0.044331
0.0432694
0.0421819
0.0410638
0.0399202
0.0387501
0.0375572
0.0363415
0.0351134
0.0338689
0.0326148
0.03135
0.0300777
0.0287994
0.0275176
0.0262355
0.0249549
0.0236785
0.0224069
0.0211415
0.0199457
0.0187707
0.0176762
0.0165971
0.0155876
0.014586
0.013645
0.0127213
0.0118733
0.0110471
0.0102644
0.00947163
0.00873922
0.00807381
0.00749788
0.00687875
0.0061933
0.00558706
0.00520637
0.00475959
0.0041948
0.0037474
0.00344625
0.00318358
0.00306389
0.0030334
0.00308548
0.0598758
0.0604959
0.0607532
0.0612221
0.0614959
0.061922
0.0621967
0.0625851
0.0628538
0.0632113
0.0634738
0.0638066
0.0640577
0.0643674
0.0646088
0.0648982
0.0651279
0.0653968
0.0656157
0.0658634
0.0660705
0.0662951
0.0664883
0.0666937
0.0668692
0.0670557
0.067212
0.0673742
0.0675113
0.067646
0.0677574
0.0678642
0.0679443
0.068017
0.0680647
0.0680921
0.0681022
0.0680989
0.0680566
0.068
0.0679064
0.06779
0.0676356
0.0674525
0.0672279
0.0669691
0.0666655
0.066322
0.0659305
0.0654937
0.0650061
0.0644681
0.0638793
0.0632358
0.0625386
0.0617876
0.0609799
0.0601192
0.0592007
0.0582297
0.057202
0.0561252
0.0549959
0.0538199
0.052595
0.0513267
0.0500137
0.048662
0.047271
0.0458454
0.0443857
0.0428976
0.0413841
0.0398383
0.0382587
0.0366394
0.0349915
0.033345
0.0316939
0.0300251
0.0282925
0.0265157
0.0247647
0.023095
0.0214003
0.0195104
0.0174821
0.0158622
0.0147396
0.0130935
0.010708
0.00938655
0.00865208
0.00736274
0.00564252
0.00462529
0.00399058
0.0032996
0.00302872
0.0029556
0.0580412
0.0586567
0.058917
0.0593771
0.059658
0.0600792
0.0603657
0.0607573
0.0610451
0.0614161
0.0617046
0.0620613
0.0623483
0.0626934
0.0629799
0.0633165
0.0636021
0.0639307
0.0642153
0.064535
0.0648161
0.0651236
0.0653969
0.0656924
0.065962
0.0662541
0.0665219
0.0668083
0.0670759
0.0673566
0.0676223
0.0679
0.0681645
0.0684339
0.068692
0.0689519
0.0692023
0.0694506
0.0696878
0.069922
0.0701438
0.07036
0.0705624
0.0707567
0.070935
0.0711016
0.0712498
0.0713821
0.0714936
0.0715849
0.0716534
0.0716887
0.0717027
0.0717007
0.0716496
0.0715807
0.0714636
0.0713158
0.0711164
0.0708742
0.0705742
0.0702185
0.0697947
0.0693097
0.0687515
0.0681222
0.0674111
0.0666196
0.0657418
0.0647769
0.0637219
0.0625776
0.0613431
0.0600224
0.0586167
0.0571269
0.0555535
0.0538999
0.0521717
0.0503756
0.0485035
0.0465421
0.044483
0.0423438
0.0401347
0.0378213
0.0353452
0.0327151
0.0300585
0.0273463
0.0243428
0.0212545
0.0182329
0.015196
0.0122476
0.00955081
0.00717929
0.00517105
0.00375792
0.00309403
0.0534906
0.0540047
0.0542218
0.0545932
0.0548148
0.0551594
0.0553832
0.0557071
0.0559339
0.0562437
0.0564739
0.0567744
0.0570072
0.0573005
0.0575361
0.0578245
0.0580635
0.0583479
0.0585904
0.0588717
0.0591173
0.0593962
0.059646
0.0599251
0.0601813
0.0604636
0.0607267
0.0610124
0.0612838
0.0615733
0.0618516
0.0621444
0.0624293
0.0627264
0.0630196
0.0633217
0.0636224
0.0639296
0.0642368
0.0645491
0.0648617
0.065178
0.0654942
0.0658126
0.0661301
0.0664509
0.0667701
0.0670895
0.0674054
0.0677162
0.0680185
0.068307
0.0685795
0.0688243
0.0690389
0.0692562
0.0694471
0.0696306
0.06979
0.0699368
0.0700636
0.0701797
0.070283
0.0703519
0.0703863
0.070398
0.0703755
0.0703031
0.0701922
0.0700282
0.069813
0.0695363
0.0691903
0.0687622
0.0682467
0.0676246
0.0668883
0.0660152
0.0649961
0.0638099
0.0624477
0.0608893
0.0591245
0.0571374
0.0549293
0.0524916
0.0498256
0.0469127
0.0437687
0.0403773
0.0367097
0.0326967
0.0283782
0.0237708
0.0191686
0.0149465
0.011358
0.00868714
0.00662925
0.0044111
0.0478587
0.048164
0.0482877
0.0484913
0.0486026
0.0488055
0.0489175
0.0491151
0.0492316
0.0494239
0.0495463
0.049735
0.0498623
0.0500478
0.0501793
0.0503622
0.0504987
0.0506796
0.0508208
0.0510008
0.0511472
0.0513275
0.0514802
0.0516626
0.0518228
0.052009
0.0521772
0.0523677
0.0525449
0.0527405
0.0529268
0.0531279
0.053324
0.0535321
0.0537386
0.0539552
0.0541726
0.0543988
0.0546277
0.0548647
0.0551059
0.0553551
0.0556098
0.0558729
0.0561426
0.0564177
0.0566977
0.0569818
0.0572689
0.0575573
0.0578467
0.0581348
0.0584215
0.058706
0.0589929
0.0592856
0.0595759
0.0598683
0.0601517
0.0604254
0.0606751
0.0609057
0.0611246
0.0613366
0.061537
0.0617289
0.0619025
0.0620603
0.0621966
0.0623076
0.062377
0.0624071
0.0624114
0.0623297
0.0621937
0.0619612
0.0616413
0.0612009
0.0606389
0.0599275
0.0590606
0.0580143
0.0567802
0.0553373
0.0536817
0.0517676
0.0495877
0.0470687
0.0441347
0.0407122
0.0367279
0.032287
0.027572
0.0228278
0.018442
0.0145177
0.0114805
0.00933931
0.00800101
0.00665474
0.0283399
0.0284917
0.0285388
0.0285966
0.0286211
0.0286515
0.0286626
0.0286718
0.0286717
0.0286708
0.028661
0.0286531
0.0286337
0.0286197
0.0285924
0.0285727
0.028539
0.0285143
0.0284753
0.0284461
0.0284028
0.0283697
0.0283228
0.028286
0.0282363
0.0281962
0.028144
0.0281004
0.0280464
0.0279995
0.0279441
0.0278939
0.0278372
0.0277841
0.0277262
0.0276708
0.0276116
0.0275541
0.0274936
0.0274339
0.027372
0.02731
0.0272462
0.0271813
0.0271144
0.0270453
0.0269737
0.0268989
0.026821
0.0267389
0.0266533
0.0265632
0.0264691
0.0263706
0.0262682
0.02616
0.0260442
0.0259195
0.0257826
0.0256317
0.0254628
0.0252805
0.0250918
0.0248951
0.024689
0.0244759
0.0242508
0.0240173
0.0237704
0.0235107
0.0232343
0.0229438
0.0226356
0.0222996
0.0219461
0.0215593
0.021149
0.020702
0.0202251
0.0197087
0.0191568
0.0185626
0.0179286
0.0172484
0.01652
0.0157235
0.0148444
0.0138204
0.0126196
0.0111823
0.00940615
0.00733623
0.00533975
0.00357711
0.00237177
0.00177544
0.00205142
0.0042561
0.00667246
0.00747864
0.0063251
0.00180244
0.00164859
0.00163921
0.00162446
0.00150891
0.00146027
0.001447
0.00144112
0.00143863
0.00144002
0.0013678
0.00133494
0.0013515
0.00149418
0.00199242
0.00327106
0.00471622
0.00502065
0.00357628
0.00440414
0.0018952
0.0018097
0.00179349
0.00164036
0.00155195
0.00152541
0.00152067
0.00151334
0.00151045
0.00145488
0.0013989
0.00138785
0.00144899
0.00170538
0.00247297
0.00387348
0.00474717
0.00480547
0.00302956
0.00311902
0.00208205
0.00199334
0.00181949
0.00169252
0.0016497
0.00164008
0.00161126
0.00159734
0.00154989
0.0014902
0.0014654
0.00149558
0.00166573
0.00214321
0.0030321
0.004317
0.00472923
0.00453372
0.00246695
0.00281504
0.00222309
0.00209461
0.00189324
0.00182106
0.00178932
0.00173618
0.00171016
0.00167513
0.00162164
0.00158766
0.00160783
0.00172212
0.00203199
0.00267359
0.00389825
0.00455403
0.00467422
0.00413641
0.00192222
0.00283237
0.00235576
0.00222572
0.00206667
0.002014
0.00193722
0.00190209
0.00187522
0.00183955
0.00181862
0.00183646
0.00195424
0.00222309
0.0027881
0.00375619
0.00442457
0.00461936
0.00454186
0.00355417
0.00142419
0.00291376
0.00257872
0.00246978
0.00234095
0.00229538
0.00225469
0.00224905
0.00225197
0.00228414
0.00238145
0.00252187
0.00280039
0.00333857
0.00398607
0.00444248
0.00460964
0.00461705
0.00426111
0.00280185
0.000993744
0.00329407
0.00316165
0.00310315
0.00307315
0.00311111
0.00319423
0.00332675
0.00350893
0.00375756
0.00387508
0.00410939
0.00440278
0.00466513
0.00487835
0.00494897
0.00487211
0.0045009
0.00372609
0.00196266
0.000640377
0.00560548
0.00572119
0.00590576
0.00607419
0.00631365
0.00642471
0.00642801
0.00632802
0.0062301
0.00611992
0.00607649
0.00601291
0.00590595
0.00573112
0.00536082
0.00485522
0.00416598
0.00292365
0.00120979
0.000377166
0.0150602
0.0149325
0.0146519
0.0138198
0.0130077
0.0120714
0.0113407
0.0105601
0.00995206
0.00927239
0.00870791
0.00802316
0.00735629
0.00653661
0.00557601
0.00463027
0.00338473
0.00195268
0.000745143
0.000207257
0.0262218
0.0243238
0.0228956
0.0205452
0.0193584
0.017329
0.0163293
0.0145885
0.0137215
0.0121113
0.0112482
0.0095966
0.00856883
0.00669091
0.00533147
0.00350014
0.00220707
0.00107524
0.000401951
9.862e-05
0.0228408
0.0211475
0.0202597
0.0182423
0.01729
0.0156774
0.0148786
0.0135348
0.0128513
0.0116389
0.0109275
0.00968148
0.00874653
0.00731667
0.00600875
0.00429641
0.00269787
0.00127828
0.000409516
9.06222e-05
0.00968547
0.00995775
0.0101079
0.0101341
0.00979854
0.00964284
0.00918351
0.00896918
0.00863418
0.00847514
0.00817626
0.00800327
0.00749635
0.00712095
0.00620088
0.00536884
0.00422267
0.00238039
0.000785129
0.000177634
0.00416592
0.00416438
0.0042527
0.00437278
0.00458292
0.00484595
0.00514485
0.00527749
0.00546234
0.00555544
0.0057552
0.00598607
0.00609322
0.00613634
0.00603185
0.00552265
0.00494226
0.00360664
0.00139112
0.000373554
0.00297995
0.00282719
0.00275136
0.00269082
0.00268199
0.00269994
0.00278748
0.00291422
0.00314774
0.00346721
0.0036923
0.00430439
0.00477172
0.00526886
0.00547229
0.00552695
0.00521561
0.00449399
0.00236626
0.000686144
0.00277555
0.00244938
0.00234141
0.00221238
0.00216678
0.00211759
0.00210202
0.00209464
0.00211426
0.00220413
0.00235531
0.00266666
0.00326236
0.00417624
0.00492497
0.00523357
0.00529397
0.00499524
0.0033843
0.00109773
0.00273176
0.0022808
0.00215605
0.00199883
0.00194725
0.00188046
0.00185122
0.00181409
0.00178067
0.00176455
0.00178804
0.00191293
0.00221604
0.00284493
0.00401577
0.0049555
0.00524588
0.00523153
0.00421207
0.00158531
0.00274203
0.00215345
0.00204114
0.00185089
0.00177152
0.00173551
0.00170156
0.00168501
0.00164357
0.00159944
0.00157546
0.00160001
0.00173191
0.00212403
0.00287033
0.00432565
0.00517298
0.00533069
0.00479776
0.00214408
0.00325088
0.00200256
0.00191626
0.00179118
0.00166962
0.0016188
0.00159872
0.00158479
0.00157755
0.00153133
0.00148525
0.0014685
0.00150379
0.0016932
0.00228241
0.00335345
0.00487951
0.0053712
0.00517212
0.00274388
0.00490652
0.00188284
0.00175552
0.00172816
0.00162096
0.00153905
0.00150962
0.00149808
0.00149386
0.00149417
0.00144543
0.00140644
0.00139951
0.00147766
0.00179398
0.00271678
0.00438382
0.00538525
0.00544976
0.00336228
0.00701127
0.0018358
0.00162094
0.00159805
0.00158821
0.00149762
0.00145591
0.00143874
0.00143011
0.00142583
0.0014261
0.00137043
0.00134806
0.00137379
0.00155697
0.00218806
0.00368721
0.00534423
0.00567892
0.00396148
0.00397106
0.00375018
0.00374679
0.0037468
0.00374652
0.00374628
0.00374612
0.00374604
0.003746
0.00374598
0.00374598
0.003746
0.00374604
0.00374612
0.00374628
0.00374652
0.0037468
0.00374679
0.00375018
0.00397107
0.00441446
0.00375345
0.00374141
0.00374096
0.00374057
0.00374012
0.00373987
0.00373975
0.00373969
0.00373966
0.00373966
0.00373969
0.00373975
0.00373987
0.00374012
0.00374057
0.00374096
0.00374141
0.00375345
0.00441445
0.00486026
0.00376063
0.00373288
0.00373264
0.00373285
0.00373274
0.00373256
0.00373242
0.00373235
0.00373231
0.00373231
0.00373235
0.00373242
0.00373256
0.00373274
0.00373285
0.00373264
0.00373288
0.00376063
0.00486027
0.00530247
0.00377205
0.00372428
0.00372394
0.00372491
0.00372524
0.00372525
0.00372519
0.00372514
0.00372512
0.00372512
0.00372514
0.00372519
0.00372525
0.00372524
0.00372491
0.00372394
0.00372428
0.00377205
0.00530246
0.00573808
0.00378541
0.00371551
0.00371483
0.00371665
0.00371758
0.00371789
0.00371795
0.00371795
0.00371795
0.00371795
0.00371795
0.00371795
0.00371789
0.00371758
0.00371665
0.00371483
0.00371551
0.00378541
0.00573809
0.00616953
0.00379778
0.00370584
0.00370513
0.00370802
0.0037097
0.00371044
0.0037107
0.00371078
0.0037108
0.0037108
0.00371078
0.0037107
0.00371044
0.0037097
0.00370802
0.00370513
0.00370584
0.00379778
0.00616952
0.00659325
0.00380843
0.00369495
0.00369473
0.00369893
0.00370155
0.00370284
0.0037034
0.00370361
0.00370368
0.00370368
0.00370361
0.0037034
0.00370284
0.00370155
0.00369893
0.00369473
0.00369495
0.00380843
0.00659326
0.00700172
0.00381652
0.00368262
0.00368357
0.00368939
0.0036931
0.00369508
0.00369602
0.00369642
0.00369656
0.00369656
0.00369642
0.00369602
0.00369508
0.0036931
0.00368939
0.00368357
0.00368262
0.00381652
0.00700171
0.00739258
0.00382341
0.00366918
0.00367175
0.00367942
0.00368437
0.00368714
0.00368854
0.00368919
0.00368943
0.00368943
0.00368919
0.00368854
0.00368714
0.00368437
0.00367942
0.00367175
0.00366918
0.00382341
0.00739258
0.00776656
0.00382757
0.00365417
0.00365908
0.00366896
0.00367533
0.00367899
0.00368095
0.0036819
0.00368228
0.00368228
0.0036819
0.00368095
0.00367899
0.00367533
0.00366896
0.00365908
0.00365416
0.00382757
0.00776656
0.00812078
0.00383018
0.00363766
0.00364554
0.00365795
0.00366593
0.00367061
0.00367321
0.00367453
0.00367507
0.00367507
0.00367453
0.00367321
0.00367061
0.00366593
0.00365795
0.00364554
0.00363766
0.00383018
0.00812079
0.00845127
0.00383059
0.00361979
0.00363117
0.00364643
0.00365619
0.003662
0.00366531
0.00366705
0.00366778
0.00366778
0.00366705
0.00366531
0.003662
0.00365619
0.00364643
0.00363117
0.00361979
0.00383059
0.00845127
0.00875495
0.0038301
0.00360085
0.0036161
0.00363444
0.00364612
0.00365316
0.00365725
0.00365945
0.00366041
0.00366041
0.00365945
0.00365725
0.00365316
0.00364612
0.00363444
0.0036161
0.00360085
0.0038301
0.00875495
0.00903479
0.00382882
0.00358086
0.00360032
0.00362199
0.00363573
0.00364408
0.00364901
0.00365173
0.00365292
0.00365292
0.00365173
0.00364901
0.00364408
0.00363573
0.00362199
0.00360033
0.00358086
0.00382882
0.00903479
0.00928904
0.00382665
0.00355993
0.00358386
0.00360908
0.00362501
0.00363476
0.00364059
0.00364386
0.00364531
0.00364531
0.00364386
0.00364059
0.00363476
0.00362501
0.00360908
0.00358386
0.00355993
0.00382664
0.00928905
0.00951777
0.00382352
0.00353797
0.00356666
0.00359566
0.00361395
0.00362518
0.00363197
0.00363582
0.00363755
0.00363755
0.00363582
0.00363197
0.00362518
0.00361395
0.00359566
0.00356666
0.00353798
0.00382352
0.00951777
0.00971937
0.00381993
0.00351523
0.00354881
0.00358179
0.00360254
0.00361535
0.00362315
0.00362761
0.00362964
0.00362964
0.00362761
0.00362315
0.00361535
0.00360254
0.00358179
0.00354881
0.00351523
0.00381993
0.00971938
0.00989701
0.00381639
0.00349201
0.00353047
0.00356754
0.00359085
0.00360528
0.00361413
0.00361923
0.00362156
0.00362156
0.00361923
0.00361413
0.00360528
0.00359085
0.00356754
0.00353048
0.00349202
0.0038164
0.00989701
0.0100501
0.00381369
0.00346861
0.00351175
0.00355295
0.00357888
0.00359499
0.00360492
0.00361068
0.00361332
0.00361332
0.00361068
0.00360492
0.00359499
0.00357888
0.00355295
0.00351174
0.0034686
0.00381368
0.0100501
0.0101817
0.00381072
0.0034447
0.00349252
0.00353798
0.00356662
0.00358446
0.0035955
0.00360193
0.0036049
0.0036049
0.00360193
0.0035955
0.00358446
0.00356662
0.00353798
0.00349252
0.0034447
0.00381072
0.0101817
0.0102899
0.00380842
0.0034205
0.00347283
0.00352262
0.00355405
0.00357368
0.00358587
0.003593
0.0035963
0.0035963
0.003593
0.00358587
0.00357368
0.00355405
0.00352262
0.00347282
0.0034205
0.00380842
0.0102899