/*--------------------------------*- C++ -*----------------------------------*\
| =========                 |                                                 |
| \\      /  F ield         | OpenFOAM: The Open Source CFD Toolbox           |
|  \\    /   O peration     | Version:  2.1.0                                 |
|   \\  /    A nd           | Web:      www.OpenFOAM.org                      |
|    \\/     M anipulation  |                                                 |
\*---------------------------------------------------------------------------*/
FoamFile
{
    version     2.0;
    format      ascii;
    class       volScalarField;
    location    "0.16";
    object      nut;
}
// * * * * * * * * * * * * * * * * * * * * * * * * * * * * * * * * * * * * * //

dimensions      [0 2 -1 0 0 0 0];

internalField   nonuniform List<scalar> 
6400
(
6.7175e-06
6.75895e-06
6.77722e-06
6.80263e-06
6.8223e-06
6.84508e-06
6.86438e-06
6.88503e-06
6.90392e-06
6.92332e-06
6.94188e-06
6.96139e-06
6.97926e-06
6.9988e-06
7.01623e-06
7.03594e-06
7.05328e-06
7.0733e-06
7.0908e-06
7.11123e-06
7.1291e-06
7.15006e-06
7.16851e-06
7.19012e-06
7.20932e-06
7.23162e-06
7.2518e-06
7.27487e-06
7.29618e-06
7.32009e-06
7.34268e-06
7.36751e-06
7.39152e-06
7.41742e-06
7.44296e-06
7.47011e-06
7.49718e-06
7.52562e-06
7.55415e-06
7.58379e-06
7.6135e-06
7.64405e-06
7.67469e-06
7.70575e-06
7.73687e-06
7.76805e-06
7.79914e-06
7.82995e-06
7.8605e-06
7.89032e-06
7.9193e-06
7.94641e-06
7.97133e-06
7.9942e-06
8.01799e-06
8.03997e-06
8.06228e-06
8.0831e-06
8.10384e-06
8.12391e-06
8.14333e-06
8.16202e-06
8.17972e-06
8.19632e-06
8.21206e-06
8.22587e-06
8.23679e-06
8.24602e-06
8.25109e-06
8.25364e-06
8.25131e-06
8.24568e-06
8.2348e-06
8.22021e-06
8.2006e-06
8.17787e-06
8.15166e-06
8.12417e-06
8.09619e-06
8.06961e-06
8.0444e-06
8.01719e-06
7.98118e-06
7.95435e-06
7.92955e-06
7.90743e-06
7.88392e-06
7.84868e-06
7.78614e-06
7.66254e-06
7.42141e-06
6.94988e-06
6.07459e-06
4.613e-06
2.6262e-06
1.6223e-06
1.83197e-06
2.91578e-06
2.83903e-06
3.03396e-06
7.18089e-05
7.22761e-05
7.24186e-05
7.2697e-05
7.28169e-05
7.30553e-05
7.31695e-05
7.33777e-05
7.34897e-05
7.36737e-05
7.37818e-05
7.39467e-05
7.40477e-05
7.41967e-05
7.42894e-05
7.44237e-05
7.45086e-05
7.46286e-05
7.4706e-05
7.48124e-05
7.4883e-05
7.49777e-05
7.50413e-05
7.51247e-05
7.51807e-05
7.5253e-05
7.53025e-05
7.53628e-05
7.5404e-05
7.54517e-05
7.54831e-05
7.55165e-05
7.55356e-05
7.55521e-05
7.55584e-05
7.55603e-05
7.55525e-05
7.5539e-05
7.55161e-05
7.54865e-05
7.54441e-05
7.53903e-05
7.53213e-05
7.52354e-05
7.51312e-05
7.50044e-05
7.48537e-05
7.46748e-05
7.44665e-05
7.42267e-05
7.39611e-05
7.36617e-05
7.32703e-05
7.26473e-05
7.19969e-05
7.13011e-05
7.05727e-05
6.98009e-05
6.89888e-05
6.81408e-05
6.72576e-05
6.6335e-05
6.53761e-05
6.43711e-05
6.33326e-05
6.22606e-05
6.11296e-05
5.99599e-05
5.87326e-05
5.74579e-05
5.61235e-05
5.4735e-05
5.32846e-05
5.17774e-05
5.02087e-05
4.85849e-05
4.69042e-05
4.5175e-05
4.33991e-05
4.15867e-05
3.97438e-05
3.78758e-05
3.59716e-05
3.40024e-05
3.19805e-05
2.98858e-05
2.77211e-05
2.54708e-05
2.31377e-05
2.07217e-05
1.82533e-05
1.57765e-05
1.33807e-05
1.11755e-05
9.12725e-06
7.23787e-06
5.73653e-06
4.66561e-06
4.03388e-06
4.82431e-06
0.000108327
0.000108811
0.000108995
0.000109242
0.000109371
0.000109547
0.000109631
0.000109749
0.000109794
0.000109863
0.000109869
0.000109894
0.000109861
0.000109845
0.000109773
0.000109718
0.000109607
0.000109512
0.000109364
0.000109227
0.000109045
0.000108873
0.00010866
0.000108454
0.000108207
0.000107965
0.000107688
0.00010741
0.000107102
0.000106791
0.000106452
0.000106107
0.000105737
0.000105357
0.000104948
0.000104522
0.000104068
0.000103591
0.000103083
0.000102547
0.000101987
0.000101399
0.000100784
0.000100136
9.9453e-05
9.87275e-05
9.79606e-05
9.7143e-05
9.62659e-05
9.50984e-05
9.36918e-05
9.22499e-05
9.07716e-05
8.92677e-05
8.77314e-05
8.61664e-05
8.45709e-05
8.2955e-05
8.13288e-05
7.96543e-05
7.79612e-05
7.62314e-05
7.44802e-05
7.26971e-05
7.08929e-05
6.90599e-05
6.72059e-05
6.53291e-05
6.3429e-05
6.15074e-05
5.95601e-05
5.75886e-05
5.55887e-05
5.3564e-05
5.15106e-05
4.94323e-05
4.73272e-05
4.52011e-05
4.30547e-05
4.08963e-05
3.87299e-05
3.65656e-05
3.44124e-05
3.22942e-05
3.02129e-05
2.81861e-05
2.62159e-05
2.43093e-05
2.24629e-05
2.06661e-05
1.89044e-05
1.72024e-05
1.54675e-05
1.37132e-05
1.18694e-05
1.00216e-05
8.25729e-06
6.70464e-06
5.89588e-06
7.07707e-06
0.000127959
0.000128062
0.000128092
0.000128048
0.000128012
0.000127895
0.000127787
0.000127609
0.00012743
0.000127195
0.000126946
0.000126658
0.000126344
0.000126003
0.000125627
0.000125232
0.000124795
0.000124341
0.000123841
0.000123322
0.00012244
0.000121574
0.000120627
0.000119699
0.000118701
0.000117721
0.000116672
0.000115634
0.000114539
0.000113446
0.000112303
0.000111156
0.000109967
0.000108766
0.000107526
0.000106273
0.000104983
0.000103678
0.000102339
0.000100981
9.95914e-05
9.81794e-05
9.67398e-05
9.52756e-05
9.37869e-05
9.22663e-05
9.07226e-05
8.91702e-05
8.75833e-05
8.59836e-05
8.43649e-05
8.27311e-05
8.10788e-05
7.94127e-05
7.77269e-05
7.60232e-05
7.4299e-05
7.25549e-05
7.07893e-05
6.90076e-05
6.72092e-05
6.5395e-05
6.35678e-05
6.17265e-05
5.98766e-05
5.80175e-05
5.6157e-05
5.42945e-05
5.2438e-05
5.05892e-05
4.87549e-05
4.69365e-05
4.51393e-05
4.3369e-05
4.16282e-05
3.99216e-05
3.8251e-05
3.6619e-05
3.50254e-05
3.34707e-05
3.19516e-05
3.04588e-05
2.89941e-05
2.75683e-05
2.61335e-05
2.4721e-05
2.32879e-05
2.18539e-05
2.0403e-05
1.89442e-05
1.74562e-05
1.59469e-05
1.44114e-05
1.28479e-05
1.12405e-05
9.68389e-06
8.31267e-06
7.51063e-06
6.94816e-06
6.5828e-06
0.000125984
0.000126422
0.000126354
0.000126396
0.000125871
0.000125533
0.000124831
0.000124295
0.000123496
0.000122822
0.000121945
0.000121166
0.000120223
0.000119352
0.000118351
0.000117398
0.000116343
0.000115316
0.000114204
0.000113113
0.000111956
0.00011081
0.000109606
0.000108405
0.000107154
0.000105905
0.000104607
0.000103312
0.000101976
0.000100638
9.92648e-05
9.78771e-05
9.64735e-05
9.50693e-05
9.36238e-05
9.21814e-05
9.07095e-05
8.92347e-05
8.77375e-05
8.62337e-05
8.47133e-05
8.31847e-05
8.16443e-05
8.00953e-05
7.85393e-05
7.69754e-05
7.54103e-05
7.38403e-05
7.22704e-05
7.07019e-05
6.91339e-05
6.75677e-05
6.60012e-05
6.44366e-05
6.28733e-05
6.13149e-05
5.9762e-05
5.82205e-05
5.66897e-05
5.51749e-05
5.36759e-05
5.2197e-05
5.07383e-05
4.93015e-05
4.78886e-05
4.64999e-05
4.51374e-05
4.37989e-05
4.24856e-05
4.11892e-05
3.99191e-05
3.86755e-05
3.74267e-05
3.62038e-05
3.49734e-05
3.37568e-05
3.25279e-05
3.13035e-05
3.00645e-05
2.88198e-05
2.75557e-05
2.62836e-05
2.49991e-05
2.37135e-05
2.24132e-05
2.11047e-05
1.9791e-05
1.84274e-05
1.71024e-05
1.58052e-05
1.43904e-05
1.30754e-05
1.20033e-05
1.09497e-05
9.78288e-06
8.76221e-06
7.97343e-06
7.50978e-06
7.38471e-06
7.46979e-06
0.000113255
0.000113068
0.000112807
0.000112465
0.000111747
0.00011108
0.000110177
0.000109355
0.00010836
0.000107429
0.000106368
0.000105361
0.000104256
0.000103175
0.000102045
0.000100901
9.97525e-05
9.85829e-05
9.73859e-05
9.61962e-05
9.49773e-05
9.37593e-05
9.25243e-05
9.12792e-05
9.00189e-05
8.87509e-05
8.74579e-05
8.61637e-05
8.4845e-05
8.35201e-05
8.2177e-05
8.08376e-05
7.94828e-05
7.81316e-05
7.67687e-05
7.54103e-05
7.40445e-05
7.26855e-05
7.13224e-05
6.99686e-05
6.86158e-05
6.72735e-05
6.5937e-05
6.46126e-05
6.32983e-05
6.19972e-05
6.07106e-05
5.94375e-05
5.81812e-05
5.69395e-05
5.57144e-05
5.45063e-05
5.33147e-05
5.21379e-05
5.09667e-05
4.9813e-05
4.86777e-05
4.75477e-05
4.64388e-05
4.53339e-05
4.42437e-05
4.31556e-05
4.20765e-05
4.09955e-05
3.9918e-05
3.88361e-05
3.77535e-05
3.66632e-05
3.5569e-05
3.44669e-05
3.33627e-05
3.18671e-05
3.04025e-05
2.89472e-05
2.75887e-05
2.62367e-05
2.49818e-05
2.37366e-05
2.25724e-05
2.14171e-05
2.03419e-05
1.92915e-05
1.83163e-05
1.73572e-05
1.64505e-05
1.55666e-05
1.47444e-05
1.39594e-05
1.32079e-05
1.24708e-05
1.17544e-05
1.10967e-05
1.04585e-05
9.85786e-06
9.2935e-06
8.85673e-06
8.53278e-06
8.39357e-06
8.3768e-06
8.63517e-06
9.77743e-05
9.70328e-05
9.6637e-05
9.59884e-05
9.52451e-05
9.43697e-05
9.34593e-05
9.25137e-05
9.15266e-05
9.05115e-05
8.94712e-05
8.8432e-05
8.73524e-05
8.62792e-05
8.51814e-05
8.40906e-05
8.29751e-05
8.18685e-05
8.07468e-05
7.96343e-05
7.85063e-05
7.73943e-05
7.62743e-05
7.51669e-05
7.40555e-05
7.29509e-05
7.1843e-05
7.07508e-05
6.96523e-05
6.8567e-05
6.74807e-05
6.64105e-05
6.53383e-05
6.42831e-05
6.32246e-05
6.21803e-05
6.1134e-05
6.00955e-05
5.90565e-05
5.80315e-05
5.69994e-05
5.59759e-05
5.49489e-05
5.39268e-05
5.29006e-05
5.18761e-05
5.08475e-05
4.98169e-05
4.87818e-05
4.7742e-05
4.66973e-05
4.56477e-05
4.45927e-05
4.32715e-05
4.1885e-05
4.05258e-05
3.92135e-05
3.79208e-05
3.6673e-05
3.54422e-05
3.42569e-05
3.30899e-05
3.1965e-05
3.08603e-05
2.97941e-05
2.87458e-05
2.77336e-05
2.67415e-05
2.57858e-05
2.48532e-05
2.39568e-05
2.30845e-05
2.22526e-05
2.1444e-05
2.06777e-05
1.99319e-05
1.92262e-05
1.85378e-05
1.78855e-05
1.72565e-05
1.66564e-05
1.60803e-05
1.55239e-05
1.49901e-05
1.44688e-05
1.39726e-05
1.34833e-05
1.30171e-05
1.25534e-05
1.21153e-05
1.16836e-05
1.12875e-05
1.0901e-05
1.05657e-05
1.02669e-05
1.00637e-05
9.94213e-06
9.8881e-06
1.02907e-05
1.05293e-05
8.37548e-05
8.26294e-05
8.22396e-05
8.14564e-05
8.0807e-05
7.99426e-05
7.91693e-05
7.83087e-05
7.74735e-05
7.66036e-05
7.57425e-05
7.48801e-05
7.40016e-05
7.3132e-05
7.22512e-05
7.13798e-05
7.04853e-05
6.96077e-05
6.87113e-05
6.78136e-05
6.69088e-05
6.60054e-05
6.50849e-05
6.41589e-05
6.29037e-05
6.15077e-05
6.01165e-05
5.87606e-05
5.74112e-05
5.61009e-05
5.48017e-05
5.35412e-05
5.22974e-05
5.10941e-05
4.99119e-05
4.87715e-05
4.76564e-05
4.65787e-05
4.55317e-05
4.45206e-05
4.35387e-05
4.25907e-05
4.16693e-05
4.07825e-05
3.99196e-05
3.90927e-05
3.82856e-05
3.75129e-05
3.67615e-05
3.60374e-05
3.53377e-05
3.46617e-05
3.40074e-05
3.33775e-05
3.2771e-05
3.21879e-05
3.16249e-05
3.10791e-05
3.05528e-05
3.0036e-05
2.95392e-05
2.90477e-05
2.85738e-05
2.81046e-05
2.76511e-05
2.72035e-05
2.67741e-05
2.63606e-05
2.5957e-05
2.55597e-05
2.51769e-05
2.4799e-05
2.44334e-05
2.40703e-05
2.37171e-05
2.33639e-05
2.30177e-05
2.26691e-05
2.23251e-05
2.19792e-05
2.16344e-05
2.12865e-05
2.09344e-05
2.05765e-05
2.02067e-05
1.98227e-05
1.94176e-05
1.8991e-05
1.85368e-05
1.80576e-05
1.75528e-05
1.7032e-05
1.65049e-05
1.59948e-05
1.5545e-05
1.523e-05
1.5e-05
1.509e-05
1.55624e-05
1.58692e-05
6.75792e-05
6.57677e-05
6.50165e-05
6.35826e-05
6.27368e-05
6.13681e-05
6.04369e-05
5.91418e-05
5.8183e-05
5.69209e-05
5.59603e-05
5.47444e-05
5.37902e-05
5.26209e-05
5.16839e-05
5.05817e-05
4.96509e-05
4.8625e-05
4.7723e-05
4.67585e-05
4.58965e-05
4.49977e-05
4.41812e-05
4.33503e-05
4.25858e-05
4.18363e-05
4.11371e-05
4.04694e-05
3.98415e-05
3.92486e-05
3.86895e-05
3.81714e-05
3.76773e-05
3.72257e-05
3.67959e-05
3.64028e-05
3.60302e-05
3.56916e-05
3.53722e-05
3.50803e-05
3.48064e-05
3.45574e-05
3.43217e-05
3.41096e-05
3.39067e-05
3.37267e-05
3.35517e-05
3.3398e-05
3.32431e-05
3.31081e-05
3.29937e-05
3.28853e-05
3.27882e-05
3.26787e-05
3.26056e-05
3.25256e-05
3.24695e-05
3.24112e-05
3.23728e-05
3.23356e-05
3.2315e-05
3.22978e-05
3.22944e-05
3.22966e-05
3.23096e-05
3.23286e-05
3.23575e-05
3.23933e-05
3.24371e-05
3.24887e-05
3.25471e-05
3.26135e-05
3.26886e-05
3.27718e-05
3.28628e-05
3.29617e-05
3.30673e-05
3.31782e-05
3.32932e-05
3.34102e-05
3.3527e-05
3.36424e-05
3.37522e-05
3.38548e-05
3.39454e-05
3.4023e-05
3.40794e-05
3.41053e-05
3.40887e-05
3.40251e-05
3.39055e-05
3.37282e-05
3.34919e-05
3.32056e-05
3.28846e-05
3.25846e-05
3.24265e-05
3.25845e-05
3.29961e-05
3.28002e-05
5.08184e-05
4.92433e-05
4.86072e-05
4.7387e-05
4.67791e-05
4.56108e-05
4.50308e-05
4.39389e-05
4.33877e-05
4.23753e-05
4.18631e-05
4.09335e-05
4.04671e-05
3.96196e-05
3.91993e-05
3.84471e-05
3.80557e-05
3.74097e-05
3.70506e-05
3.64938e-05
3.61793e-05
3.57063e-05
3.54277e-05
3.50427e-05
3.47942e-05
3.44909e-05
3.42729e-05
3.40376e-05
3.38554e-05
3.36722e-05
3.35266e-05
3.339e-05
3.32657e-05
3.31736e-05
3.31056e-05
3.30333e-05
3.2973e-05
3.29393e-05
3.29104e-05
3.29003e-05
3.28981e-05
3.29104e-05
3.29318e-05
3.29653e-05
3.3008e-05
3.30619e-05
3.31239e-05
3.31973e-05
3.32781e-05
3.33696e-05
3.3469e-05
3.35777e-05
3.36938e-05
3.38199e-05
3.39534e-05
3.40967e-05
3.42469e-05
3.44072e-05
3.45744e-05
3.47513e-05
3.49355e-05
3.51293e-05
3.53308e-05
3.55423e-05
3.57633e-05
3.59939e-05
3.62346e-05
3.64856e-05
3.67478e-05
3.70206e-05
3.73052e-05
3.7601e-05
3.79098e-05
3.82307e-05
3.85654e-05
3.89134e-05
3.92759e-05
3.9655e-05
4.00491e-05
4.04608e-05
4.08892e-05
4.13368e-05
4.18029e-05
4.22892e-05
4.27954e-05
4.33222e-05
4.38696e-05
4.4444e-05
4.50492e-05
4.56907e-05
4.63758e-05
4.71075e-05
4.78931e-05
4.87367e-05
4.96441e-05
5.06116e-05
5.16115e-05
5.25565e-05
5.29994e-05
5.31085e-05
5.23401e-05
5.07525e-05
5.01095e-05
4.88731e-05
4.8243e-05
4.70565e-05
4.64493e-05
4.53265e-05
4.47377e-05
4.36899e-05
4.31377e-05
4.21641e-05
4.16432e-05
4.07637e-05
4.02714e-05
3.94852e-05
3.90237e-05
3.83361e-05
3.79076e-05
3.73058e-05
3.69232e-05
3.64033e-05
3.60558e-05
3.5623e-05
3.53092e-05
3.49511e-05
3.46759e-05
3.43837e-05
3.41471e-05
3.39107e-05
3.37139e-05
3.35268e-05
3.33655e-05
3.32204e-05
3.3094e-05
3.29757e-05
3.28763e-05
3.28101e-05
3.27392e-05
3.26762e-05
3.26287e-05
3.25982e-05
3.2574e-05
3.25661e-05
3.25633e-05
3.25764e-05
3.25937e-05
3.26269e-05
3.26628e-05
3.27152e-05
3.27694e-05
3.28394e-05
3.29115e-05
3.29991e-05
3.30884e-05
3.31916e-05
3.32983e-05
3.34152e-05
3.35371e-05
3.36672e-05
3.38028e-05
3.39469e-05
3.40967e-05
3.42539e-05
3.44177e-05
3.45877e-05
3.4765e-05
3.49469e-05
3.51365e-05
3.53301e-05
3.55319e-05
3.5737e-05
3.59492e-05
3.61643e-05
3.63861e-05
3.66109e-05
3.68418e-05
3.7076e-05
3.73157e-05
3.75594e-05
3.78088e-05
3.80637e-05
3.8326e-05
3.85963e-05
3.8877e-05
3.91698e-05
3.94788e-05
3.98068e-05
4.01599e-05
4.05378e-05
4.09439e-05
4.13918e-05
4.18877e-05
4.24468e-05
4.30862e-05
4.38304e-05
4.4707e-05
4.57101e-05
4.65689e-05
4.69435e-05
7.19544e-05
7.02272e-05
6.95087e-05
6.81305e-05
6.73001e-05
6.59835e-05
6.50671e-05
6.38028e-05
6.27991e-05
6.15792e-05
6.05317e-05
5.93317e-05
5.82752e-05
5.71007e-05
5.60484e-05
5.48954e-05
5.38541e-05
5.27448e-05
5.17174e-05
5.06486e-05
4.96551e-05
4.86339e-05
4.76712e-05
4.67072e-05
4.57897e-05
4.48736e-05
4.40044e-05
4.31458e-05
4.23261e-05
4.15273e-05
4.07676e-05
4.00423e-05
3.93504e-05
3.86971e-05
3.80741e-05
3.74835e-05
3.69282e-05
3.63988e-05
3.59009e-05
3.54287e-05
3.49857e-05
3.45642e-05
3.41708e-05
3.37955e-05
3.34443e-05
3.31097e-05
3.27942e-05
3.24958e-05
3.22093e-05
3.19419e-05
3.16816e-05
3.14387e-05
3.11938e-05
3.09715e-05
3.07662e-05
3.05527e-05
3.03619e-05
3.01677e-05
3.00015e-05
2.98264e-05
2.96578e-05
2.95037e-05
2.93513e-05
2.92084e-05
2.90668e-05
2.89327e-05
2.87995e-05
2.86686e-05
2.85348e-05
2.83979e-05
2.82551e-05
2.81053e-05
2.79473e-05
2.77782e-05
2.75991e-05
2.74052e-05
2.71989e-05
2.69754e-05
2.6737e-05
2.64797e-05
2.62065e-05
2.59133e-05
2.5604e-05
2.52861e-05
2.49593e-05
2.46181e-05
2.42766e-05
2.39328e-05
2.35977e-05
2.32799e-05
2.29768e-05
2.26842e-05
2.24417e-05
2.22354e-05
2.21101e-05
2.20847e-05
2.22547e-05
2.26786e-05
2.34821e-05
2.4139e-05
8.58647e-05
8.49432e-05
8.45985e-05
8.39573e-05
8.33054e-05
8.25718e-05
8.18101e-05
8.10231e-05
8.02023e-05
7.93827e-05
7.85508e-05
7.77112e-05
7.68526e-05
7.60094e-05
7.51428e-05
7.42857e-05
7.34052e-05
7.25489e-05
7.16556e-05
7.07865e-05
6.98873e-05
6.90069e-05
6.80932e-05
6.71971e-05
6.62745e-05
6.53515e-05
6.44202e-05
6.34809e-05
6.25193e-05
6.14561e-05
5.9982e-05
5.85375e-05
5.71012e-05
5.56958e-05
5.43055e-05
5.29435e-05
5.16061e-05
5.0293e-05
4.90109e-05
4.77547e-05
4.65317e-05
4.53349e-05
4.41724e-05
4.30374e-05
4.19316e-05
4.08545e-05
3.98031e-05
3.87855e-05
3.77886e-05
3.68283e-05
3.58876e-05
3.4982e-05
3.40956e-05
3.32433e-05
3.24094e-05
3.16075e-05
3.08335e-05
3.008e-05
2.93526e-05
2.86442e-05
2.79555e-05
2.72831e-05
2.66255e-05
2.59801e-05
2.53461e-05
2.47201e-05
2.41025e-05
2.34967e-05
2.29059e-05
2.2327e-05
2.17579e-05
2.12058e-05
2.067e-05
2.01334e-05
1.96179e-05
1.9103e-05
1.86061e-05
1.81138e-05
1.76363e-05
1.71666e-05
1.67085e-05
1.62613e-05
1.58239e-05
1.53983e-05
1.49838e-05
1.45843e-05
1.41969e-05
1.38277e-05
1.34763e-05
1.31517e-05
1.28493e-05
1.25752e-05
1.23153e-05
1.21055e-05
1.19478e-05
1.18179e-05
1.18974e-05
1.21222e-05
1.26573e-05
1.29288e-05
0.00010043
9.99021e-05
9.95974e-05
9.90861e-05
9.84246e-05
9.76651e-05
9.68642e-05
9.60169e-05
9.51014e-05
9.41604e-05
9.32031e-05
9.22224e-05
9.11968e-05
9.01801e-05
8.91273e-05
8.80727e-05
8.69841e-05
8.59109e-05
8.48002e-05
8.37014e-05
8.25794e-05
8.14643e-05
8.0332e-05
7.92081e-05
7.80728e-05
7.69488e-05
7.58134e-05
7.4694e-05
7.35696e-05
7.2459e-05
7.13426e-05
7.02357e-05
6.91283e-05
6.80325e-05
6.69324e-05
6.58435e-05
6.47542e-05
6.36778e-05
6.26012e-05
6.15359e-05
6.04677e-05
5.94082e-05
5.83422e-05
5.72805e-05
5.62281e-05
5.5165e-05
5.4107e-05
5.3041e-05
5.19753e-05
5.09006e-05
4.98224e-05
4.87342e-05
4.76389e-05
4.65313e-05
4.54147e-05
4.38408e-05
4.22963e-05
4.07668e-05
3.93086e-05
3.78715e-05
3.65007e-05
3.51476e-05
3.38528e-05
3.25835e-05
3.13672e-05
3.01813e-05
2.90461e-05
2.79406e-05
2.68775e-05
2.58463e-05
2.48521e-05
2.38922e-05
2.29673e-05
2.20851e-05
2.12294e-05
2.04156e-05
1.96164e-05
1.88651e-05
1.81214e-05
1.74303e-05
1.67405e-05
1.60984e-05
1.54457e-05
1.48432e-05
1.42405e-05
1.36979e-05
1.31508e-05
1.26397e-05
1.2115e-05
1.16449e-05
1.12123e-05
1.08297e-05
1.04395e-05
1.0082e-05
9.77842e-06
9.54194e-06
9.42647e-06
9.35145e-06
9.6891e-06
9.95315e-06
0.000115888
0.00011588
0.000115715
0.000115532
0.000114914
0.000114399
0.000113604
0.000112911
0.000112006
0.000111186
0.000110217
0.000109312
0.000108273
0.000107294
0.000106209
0.000105165
0.000104042
0.000102934
0.000101785
0.000100627
9.94675e-05
9.82726e-05
9.70742e-05
9.58669e-05
9.4637e-05
9.34097e-05
9.21538e-05
9.09002e-05
8.96291e-05
8.83524e-05
8.70587e-05
8.57588e-05
8.4438e-05
8.31129e-05
8.1768e-05
8.04171e-05
7.90548e-05
7.76911e-05
7.6318e-05
7.49476e-05
7.35699e-05
7.21966e-05
7.08206e-05
6.94516e-05
6.80835e-05
6.67256e-05
6.53723e-05
6.40318e-05
6.27e-05
6.13837e-05
6.00796e-05
5.87927e-05
5.75213e-05
5.62663e-05
5.50312e-05
5.38075e-05
5.25956e-05
5.13976e-05
5.0204e-05
4.90217e-05
4.78556e-05
4.66946e-05
4.55512e-05
4.44113e-05
4.32824e-05
4.2152e-05
4.10261e-05
3.98951e-05
3.87642e-05
3.76263e-05
3.64849e-05
3.53344e-05
3.37223e-05
3.21223e-05
3.05493e-05
2.90986e-05
2.76568e-05
2.63123e-05
2.49595e-05
2.36938e-05
2.24343e-05
2.12809e-05
2.01287e-05
1.90281e-05
1.78882e-05
1.68456e-05
1.58919e-05
1.50594e-05
1.41086e-05
1.30361e-05
1.21067e-05
1.15875e-05
1.09022e-05
9.94586e-06
9.22538e-06
8.77709e-06
8.37628e-06
8.24116e-06
8.24508e-06
8.46047e-06
0.00012806
0.000128659
0.000128686
0.000128877
0.000128462
0.000128272
0.000127681
0.00012728
0.000126582
0.000126035
0.000125261
0.000124602
0.000123751
0.000122994
0.00012208
0.000121238
0.000120263
0.000119343
0.000118315
0.000117323
0.000116246
0.000115185
0.000114061
0.000112951
0.000111781
0.00011062
0.000109406
0.000108196
0.000106945
0.000105689
0.000104396
0.000103097
0.000101762
0.000100422
9.90519e-05
9.76628e-05
9.62613e-05
9.48553e-05
9.34116e-05
9.19678e-05
9.04958e-05
8.90184e-05
8.75181e-05
8.60108e-05
8.44835e-05
8.29487e-05
8.1397e-05
7.9838e-05
7.82659e-05
7.66875e-05
7.51005e-05
7.3509e-05
7.1916e-05
7.03197e-05
6.87271e-05
6.713e-05
6.55307e-05
6.39314e-05
6.23301e-05
6.07339e-05
5.91418e-05
5.7563e-05
5.59972e-05
5.44506e-05
5.29227e-05
5.1418e-05
4.99363e-05
4.84818e-05
4.70537e-05
4.5654e-05
4.42816e-05
4.29397e-05
4.16234e-05
4.03266e-05
3.90387e-05
3.77623e-05
3.65082e-05
3.52558e-05
3.40326e-05
3.2794e-05
3.15329e-05
3.0233e-05
2.89409e-05
2.76658e-05
2.63629e-05
2.49394e-05
2.29004e-05
2.12281e-05
2.02175e-05
1.8486e-05
1.56536e-05
1.42974e-05
1.38201e-05
1.24355e-05
1.01768e-05
8.99148e-06
8.40826e-06
7.53701e-06
7.34658e-06
7.42968e-06
0.000129079
0.000129345
0.00012944
0.00012951
0.000129535
0.00012952
0.000129469
0.000129382
0.000129257
0.000129107
0.000128917
0.00012871
0.000128454
0.000128192
0.000127877
0.00012756
0.000127189
0.000126818
0.000126392
0.000125963
0.000125481
0.000124988
0.000124362
0.000123528
0.000122615
0.00012172
0.000120755
0.000119803
0.000118795
0.000117791
0.000116739
0.000115691
0.000114601
0.000113503
0.000112368
0.000111222
0.000110044
0.000108849
0.000107622
0.000106379
0.000105105
0.000103812
0.000102488
0.000101145
9.97713e-05
9.83756e-05
9.69501e-05
9.55007e-05
9.40225e-05
9.25192e-05
9.09898e-05
8.94245e-05
8.78411e-05
8.62488e-05
8.4615e-05
8.29738e-05
8.12971e-05
7.96101e-05
7.78946e-05
7.6165e-05
7.44102e-05
7.26368e-05
7.08352e-05
6.90167e-05
6.71744e-05
6.53153e-05
6.3435e-05
6.15404e-05
5.96315e-05
5.77129e-05
5.5788e-05
5.38631e-05
5.19392e-05
5.00249e-05
4.81238e-05
4.62412e-05
4.43816e-05
4.25519e-05
4.07598e-05
3.90118e-05
3.73049e-05
3.56315e-05
3.39873e-05
3.23791e-05
3.08099e-05
2.92488e-05
2.768e-05
2.61027e-05
2.45095e-05
2.29098e-05
2.11925e-05
1.93994e-05
1.74901e-05
1.54893e-05
1.34506e-05
1.14424e-05
9.60885e-06
8.35551e-06
7.25558e-06
6.74781e-06
0.000108719
0.000109304
0.000109529
0.000109846
0.000110012
0.000110247
0.000110364
0.000110533
0.000110608
0.000110725
0.000110761
0.000110834
0.000110831
0.000110861
0.000110822
0.000110812
0.000110738
0.000110688
0.00011058
0.00011049
0.000110349
0.000110219
0.000110046
0.000109882
0.00010968
0.000109486
0.000109258
0.000109034
0.00010878
0.000108525
0.000108243
0.000107957
0.000107648
0.000107332
0.000106999
0.000106649
0.000106281
0.000105894
0.000105488
0.000105061
0.000104611
0.000104138
0.000103638
0.00010311
0.000102551
0.00010197
0.00010136
0.000100724
0.000100057
9.93582e-05
9.86163e-05
9.78282e-05
9.69898e-05
9.60213e-05
9.46365e-05
9.3227e-05
9.17604e-05
9.02678e-05
8.873e-05
8.71655e-05
8.55677e-05
8.39508e-05
8.23105e-05
8.06241e-05
7.88954e-05
7.7142e-05
7.53544e-05
7.35201e-05
7.16562e-05
6.97523e-05
6.7816e-05
6.58425e-05
6.38296e-05
6.17735e-05
5.96771e-05
5.7532e-05
5.53409e-05
5.30953e-05
5.07993e-05
4.84486e-05
4.60499e-05
4.36026e-05
4.1115e-05
3.85935e-05
3.60586e-05
3.35267e-05
3.10195e-05
2.85516e-05
2.61569e-05
2.38454e-05
2.15865e-05
1.93695e-05
1.71999e-05
1.50025e-05
1.28874e-05
1.08968e-05
9.05511e-06
7.53338e-06
6.63983e-06
7.57197e-06
7.16711e-05
7.21533e-05
7.23246e-05
7.26132e-05
7.27504e-05
7.29983e-05
7.31243e-05
7.3341e-05
7.34582e-05
7.36516e-05
7.37619e-05
7.39365e-05
7.40394e-05
7.41971e-05
7.42923e-05
7.44345e-05
7.45233e-05
7.46506e-05
7.47328e-05
7.48466e-05
7.49223e-05
7.50238e-05
7.50938e-05
7.51847e-05
7.52497e-05
7.53312e-05
7.53903e-05
7.54617e-05
7.55152e-05
7.55764e-05
7.56226e-05
7.5672e-05
7.57098e-05
7.57467e-05
7.57733e-05
7.57987e-05
7.58158e-05
7.58293e-05
7.58353e-05
7.58361e-05
7.58296e-05
7.5817e-05
7.57972e-05
7.57711e-05
7.57376e-05
7.56938e-05
7.56384e-05
7.557e-05
7.5486e-05
7.53839e-05
7.52619e-05
7.51168e-05
7.49478e-05
7.4753e-05
7.45375e-05
7.43072e-05
7.40493e-05
7.37699e-05
7.34548e-05
7.31034e-05
7.26246e-05
7.19162e-05
7.11574e-05
7.03572e-05
6.9512e-05
6.86261e-05
6.76888e-05
6.67033e-05
6.5664e-05
6.45675e-05
6.33987e-05
6.21622e-05
6.08735e-05
5.94776e-05
5.80107e-05
5.64395e-05
5.47805e-05
5.30134e-05
5.11485e-05
4.91743e-05
4.71e-05
4.49213e-05
4.26484e-05
4.02827e-05
3.78397e-05
3.53072e-05
3.27036e-05
3.00103e-05
2.72199e-05
2.43362e-05
2.13643e-05
1.83863e-05
1.54787e-05
1.2708e-05
1.02508e-05
8.10822e-06
6.43763e-06
5.24012e-06
4.51953e-06
4.92468e-06
6.67605e-06
6.72045e-06
6.74007e-06
6.76682e-06
6.78746e-06
6.81099e-06
6.83102e-06
6.85165e-06
6.87083e-06
6.89068e-06
6.90908e-06
6.92874e-06
6.94627e-06
6.96583e-06
6.98283e-06
7.00243e-06
7.01926e-06
7.03904e-06
7.05597e-06
7.0761e-06
7.0934e-06
7.11402e-06
7.13193e-06
7.15314e-06
7.17184e-06
7.19379e-06
7.21349e-06
7.23621e-06
7.25712e-06
7.28074e-06
7.30307e-06
7.3277e-06
7.35161e-06
7.37749e-06
7.40314e-06
7.43054e-06
7.45807e-06
7.48725e-06
7.51686e-06
7.54802e-06
7.5799e-06
7.61324e-06
7.64756e-06
7.6832e-06
7.71996e-06
7.75788e-06
7.79698e-06
7.83718e-06
7.87863e-06
7.92116e-06
7.96507e-06
8.01027e-06
8.05706e-06
8.10549e-06
8.1558e-06
8.20763e-06
8.26057e-06
8.31445e-06
8.36838e-06
8.42206e-06
8.47434e-06
8.52696e-06
8.58254e-06
8.64091e-06
8.70193e-06
8.76695e-06
8.83471e-06
8.9072e-06
8.98324e-06
9.06389e-06
9.14853e-06
9.23916e-06
9.33543e-06
9.43448e-06
9.54191e-06
9.65235e-06
9.77163e-06
9.89536e-06
1.00285e-05
1.01681e-05
1.03183e-05
1.04774e-05
1.0649e-05
1.08315e-05
1.10252e-05
1.12168e-05
1.13909e-05
1.14848e-05
1.1434e-05
1.11094e-05
1.02114e-05
8.72587e-06
6.79351e-06
4.69939e-06
3.08354e-06
2.15388e-06
2.11471e-06
3.27272e-06
3.18608e-06
3.36511e-06
8.44013e-06
8.49224e-07
1.09174e-06
1.51011e-06
1.95282e-06
2.2418e-06
2.58286e-06
2.96795e-06
3.35572e-06
3.73251e-06
4.0763e-06
4.13251e-06
4.23267e-06
4.49445e-06
5.4719e-06
7.56943e-06
1.01378e-05
1.07277e-05
8.84402e-06
3.93074e-06
3.77509e-06
1.0791e-06
1.13374e-06
1.42579e-06
1.66087e-06
1.93691e-06
2.29002e-06
2.67724e-06
3.06836e-06
3.47619e-06
3.6951e-06
3.88491e-06
4.1872e-06
4.96034e-06
6.65417e-06
9.20745e-06
1.10538e-05
1.04166e-05
8.6404e-06
3.99103e-06
3.42688e-06
1.56454e-06
1.6097e-06
1.59859e-06
1.73661e-06
1.99067e-06
2.31022e-06
2.6459e-06
3.04791e-06
3.47027e-06
3.69453e-06
4.04519e-06
4.8048e-06
6.2309e-06
8.56224e-06
1.03806e-05
1.14003e-05
1.01334e-05
8.50558e-06
4.0118e-06
3.8285e-06
2.20335e-06
2.22629e-06
2.03214e-06
2.17463e-06
2.30869e-06
2.5833e-06
2.96945e-06
3.4937e-06
4.18076e-06
4.34796e-06
5.25351e-06
6.50503e-06
8.61593e-06
1.03954e-05
1.19165e-05
1.14835e-05
1.00656e-05
8.25938e-06
3.8066e-06
4.48502e-06
3.08215e-06
3.08379e-06
2.77153e-06
3.03958e-06
3.03981e-06
3.42408e-06
3.96395e-06
4.80441e-06
5.64738e-06
6.67999e-06
8.08358e-06
9.95704e-06
1.13327e-05
1.24707e-05
1.23926e-05
1.12182e-05
1.00729e-05
7.70412e-06
3.06811e-06
5.41055e-06
4.30119e-06
4.27054e-06
3.87028e-06
4.23503e-06
4.49109e-06
5.20581e-06
6.33306e-06
8.16224e-06
1.03138e-05
1.19345e-05
1.28806e-05
1.30839e-05
1.34134e-05
1.31326e-05
1.21802e-05
1.13124e-05
1.01196e-05
6.82524e-06
2.33378e-06
7.00408e-06
6.29498e-06
6.30877e-06
6.23029e-06
7.07704e-06
8.36912e-06
1.04576e-05
1.3667e-05
1.6858e-05
1.6067e-05
1.56704e-05
1.53714e-05
1.48409e-05
1.43283e-05
1.35868e-05
1.27527e-05
1.14938e-05
9.85525e-06
5.59604e-06
1.63574e-06
1.10886e-05
1.16653e-05
1.23724e-05
1.40982e-05
1.68794e-05
2.05962e-05
2.11292e-05
2.03873e-05
1.96289e-05
1.86591e-05
1.79988e-05
1.72116e-05
1.64392e-05
1.56333e-05
1.44876e-05
1.30657e-05
1.16725e-05
9.14656e-06
4.24769e-06
1.03668e-06
2.66334e-05
2.94004e-05
3.08526e-05
3.25799e-05
3.11123e-05
2.9479e-05
2.79775e-05
2.63934e-05
2.50475e-05
2.35652e-05
2.23031e-05
2.07855e-05
1.93552e-05
1.76177e-05
1.54568e-05
1.3512e-05
1.062e-05
7.71199e-06
3.38579e-06
6.0114e-07
4.7147e-05
4.7112e-05
4.50184e-05
4.19682e-05
4.02886e-05
3.72948e-05
3.57791e-05
3.29661e-05
3.15939e-05
2.87551e-05
2.73508e-05
2.42188e-05
2.24964e-05
1.86501e-05
1.48484e-05
1.02523e-05
7.72315e-06
5.61161e-06
2.41057e-06
2.97039e-07
4.29558e-05
4.27408e-05
4.14828e-05
3.86138e-05
3.71863e-05
3.46311e-05
3.33165e-05
3.09874e-05
2.9814e-05
2.7572e-05
2.63239e-05
2.3926e-05
2.22191e-05
1.93602e-05
1.65262e-05
1.18254e-05
8.81871e-06
6.21471e-06
2.38011e-06
2.73738e-07
1.95248e-05
2.20227e-05
2.34762e-05
2.64705e-05
2.61202e-05
2.58058e-05
2.45835e-05
2.37917e-05
2.26935e-05
2.20073e-05
2.09953e-05
2.04132e-05
1.90683e-05
1.82269e-05
1.60792e-05
1.45072e-05
1.20266e-05
8.57932e-06
3.35844e-06
5.20377e-07
9.41563e-06
9.3274e-06
9.59553e-06
1.04535e-05
1.24132e-05
1.52203e-05
1.93347e-05
1.91737e-05
1.87683e-05
1.80832e-05
1.75772e-05
1.72713e-05
1.66005e-05
1.60357e-05
1.53444e-05
1.38792e-05
1.27675e-05
1.03347e-05
4.54323e-06
1.02781e-06
6.61406e-06
5.79014e-06
5.71771e-06
5.43808e-06
6.02973e-06
6.84229e-06
8.39093e-06
1.0641e-05
1.51741e-05
1.56701e-05
1.48995e-05
1.5415e-05
1.51581e-05
1.50258e-05
1.42993e-05
1.35465e-05
1.24116e-05
1.09947e-05
6.27226e-06
1.73215e-06
5.23678e-06
4.07766e-06
4.02417e-06
3.6178e-06
3.94039e-06
4.10208e-06
4.69037e-06
5.62836e-06
7.00541e-06
8.82552e-06
1.06566e-05
1.26287e-05
1.28592e-05
1.37763e-05
1.39663e-05
1.30603e-05
1.21324e-05
1.10693e-05
7.72111e-06
2.52115e-06
4.37316e-06
2.95486e-06
2.93373e-06
2.61773e-06
2.85266e-06
2.85317e-06
3.20137e-06
3.69298e-06
4.44874e-06
5.14052e-06
6.06562e-06
7.55838e-06
9.69258e-06
1.13982e-05
1.28541e-05
1.31655e-05
1.19356e-05
1.08814e-05
8.60782e-06
3.31807e-06
3.78208e-06
2.12797e-06
2.14023e-06
1.96423e-06
2.09194e-06
2.21805e-06
2.47912e-06
2.86133e-06
3.34055e-06
3.98325e-06
4.16635e-06
5.00204e-06
6.36149e-06
8.71847e-06
1.0805e-05
1.25949e-05
1.23137e-05
1.07822e-05
9.07604e-06
4.10646e-06
3.54854e-06
1.50773e-06
1.52974e-06
1.56252e-06
1.70549e-06
1.95199e-06
2.24595e-06
2.58776e-06
2.97656e-06
3.36174e-06
3.60303e-06
3.94819e-06
4.70222e-06
6.26849e-06
8.87862e-06
1.09267e-05
1.21637e-05
1.08145e-05
9.14389e-06
4.19057e-06
4.22235e-06
1.07093e-06
1.10095e-06
1.37724e-06
1.64693e-06
1.92798e-06
2.26889e-06
2.63513e-06
3.01723e-06
3.41252e-06
3.63294e-06
3.842e-06
4.13469e-06
4.96358e-06
6.85096e-06
9.70495e-06
1.18436e-05
1.11398e-05
9.27332e-06
4.1652e-06
8.97389e-06
8.68193e-07
1.07866e-06
1.47845e-06
1.91561e-06
2.22914e-06
2.57291e-06
2.93795e-06
3.30308e-06
3.6553e-06
3.97527e-06
4.06304e-06
4.17586e-06
4.46897e-06
5.60125e-06
8.01369e-06
1.07845e-05
1.1473e-05
9.46927e-06
4.10165e-06
1.23418e-06
0.000116551
0.000294173
0.000330906
0.00033481
0.000335356
0.000335357
0.000335342
0.000335343
0.000335345
0.000335345
0.000335343
0.000335342
0.000335357
0.000335356
0.00033481
0.000330906
0.000294172
0.000116551
1.23418e-06
1.3696e-06
6.81798e-05
0.000219619
0.000309522
0.000330911
0.000334527
0.000335273
0.000335315
0.000335296
0.000335287
0.000335287
0.000335296
0.000335315
0.000335273
0.000334527
0.000330911
0.000309523
0.00021962
6.81802e-05
1.36959e-06
1.51365e-06
5.28831e-05
0.000176427
0.000280555
0.00032214
0.000332503
0.000334604
0.0003351
0.000335168
0.000335172