/*--------------------------------*- C++ -*----------------------------------*\
| =========                 |                                                 |
| \\      /  F ield         | OpenFOAM: The Open Source CFD Toolbox           |
|  \\    /   O peration     | Version:  2.1.0                                 |
|   \\  /    A nd           | Web:      www.OpenFOAM.org                      |
|    \\/     M anipulation  |                                                 |
\*---------------------------------------------------------------------------*/
FoamFile
{
    version     2.0;
    format      ascii;
    class       volScalarField;
    location    "0.16";
    object      omega;
}
// * * * * * * * * * * * * * * * * * * * * * * * * * * * * * * * * * * * * * //

dimensions      [0 0 -1 0 0 0 0];

internalField   nonuniform List<scalar> 
6400
(
1545.38
1549.13
1550.31
1551.76
1552.39
1553.2
1553.51
1553.87
1553.95
1553.99
1553.87
1553.76
1553.41
1553.15
1552.59
1552.19
1551.46
1550.94
1550.07
1549.43
1548.45
1547.7
1546.61
1545.77
1544.59
1543.64
1542.39
1541.34
1540.02
1538.86
1537.47
1536.21
1534.76
1533.39
1531.87
1530.38
1528.77
1527.17
1525.44
1523.69
1521.79
1519.83
1517.72
1515.48
1513.08
1510.5
1507.73
1504.74
1501.53
1498.04
1494.27
1490.12
1485.56
1480.61
1475.53
1470.07
1464.43
1458.44
1452.22
1445.71
1438.92
1431.83
1424.41
1416.65
1408.58
1400.08
1391.09
1381.7
1371.7
1361.22
1350.09
1338.41
1326.03
1313.05
1299.38
1285.13
1270.25
1254.87
1239
1222.7
1205.88
1188.18
1169
1149.38
1128.6
1106.44
1082.35
1055.39
1024.43
987.553
942.097
883.302
804.507
697.912
559.535
484.662
518.065
659.567
770.087
802.197
675.287
675.09
675.474
675.776
676.289
676.994
677.61
678.549
679.29
680.382
681.259
682.472
683.49
684.81
685.965
687.393
688.682
690.221
691.645
693.302
694.868
696.654
698.373
700.301
702.183
704.263
706.32
708.566
710.813
713.243
715.702
718.34
721.04
723.924
726.88
730.009
733.24
736.642
740.168
743.869
747.709
751.733
755.917
760.296
764.86
769.629
774.603
779.797
785.216
790.873
796.759
802.876
809.231
815.843
822.793
830.032
837.626
845.554
853.871
862.58
871.717
881.308
891.387
901.999
913.141
924.704
936.707
949.358
962.622
976.587
991.269
1006.74
1023.04
1040.25
1058.42
1077.65
1098.02
1119.64
1142.66
1167.27
1193.25
1219.87
1247.76
1276.41
1305.51
1334.39
1362.35
1388.57
1412.23
1432.46
1447.34
1454.2
1455.48
1441.33
1403.81
1318.89
1196.23
1047.3
886.169
728.353
498.401
500.76
501.867
504.102
505.571
507.915
509.651
512.105
514.081
516.648
518.85
521.548
523.971
526.814
529.457
532.461
535.323
538.502
541.585
544.954
548.264
551.832
555.371
559.151
562.93
566.935
570.966
575.211
579.505
584.005
588.574
593.341
598.194
603.234
608.413
613.798
619.344
625.112
631.069
637.272
643.663
650.284
657.106
664.175
671.492
679.077
686.929
695.063
703.478
712.181
721.182
730.493
740.12
750.084
760.408
771.092
782.162
793.621
805.489
817.77
830.478
843.614
857.183
871.178
885.61
900.517
915.898
931.558
947.528
963.714
980.096
996.607
1013.21
1029.85
1046.5
1063.15
1079.77
1096.4
1113.02
1129.67
1146.36
1163.12
1180
1196.94
1213.79
1230.49
1246.63
1261.83
1275.25
1284.9
1289.27
1290.03
1277.03
1249.49
1197.68
1116.39
1002.51
858.514
699.039
550.908
455.896
460.09
461.932
465.572
467.877
471.522
474.185
477.874
480.854
484.637
487.912
491.828
495.384
499.468
503.302
507.578
511.69
516.181
520.57
525.292
529.958
534.925
539.872
545.096
550.333
555.827
561.361
567.138
572.981
579.057
585.22
591.608
598.106
604.825
611.658
618.698
625.866
633.228
640.722
648.396
656.232
664.267
672.481
680.874
689.406
698.099
706.923
715.888
724.972
734.175
743.481
752.889
762.383
771.962
781.616
791.337
801.113
810.935
820.789
830.664
840.545
850.415
860.258
870.047
879.778
889.469
899.078
908.597
918.001
927.269
936.386
945.31
953.974
962.38
970.402
978.03
985.113
991.6
997.316
1002.17
1005.97
1008.2
1009.12
1009.2
1006.22
1001.75
994.147
983.997
969.955
952.154
929.771
902.28
867.944
825.871
774.054
711.043
639.02
562.072
493.509
452.543
451.153
456.492
458.799
463.395
466.266
470.825
474.11
478.666
482.293
486.899
490.829
495.522
499.724
504.534
508.988
513.935
518.626
523.723
528.636
533.89
539.014
544.429
549.753
555.328
560.842
566.57
572.26
578.134
583.986
589.995
595.994
602.126
608.254
614.487
620.715
627.027
633.331
639.697
646.05
652.441
658.811
665.194
671.541
677.878
684.177
690.447
696.666
702.838
708.947
714.996
720.972
726.876
732.692
738.415
744.023
749.514
754.859
760.07
765.101
769.933
774.537
778.878
782.933
786.661
790.035
793.013
795.564
797.644
799.214
800.061
800.402
800.414
799.134
797.463
794.581
791.048
786.278
780.649
773.743
765.821
756.641
746.409
734.895
722.275
708.381
693.439
677.305
660.341
642.435
623.747
603.953
583.094
560.917
536.835
510.15
481.739
452.476
426.378
410.379
402.804
447.084
452.521
454.846
459.474
462.298
466.832
469.993
474.442
477.85
482.245
485.849
490.214
493.972
498.328
502.213
506.566
510.556
514.911
518.98
523.342
527.474
531.84
536.023
540.386
544.603
548.958
553.185
557.517
561.735
566.018
570.193
574.444
578.591
582.772
586.844
590.913
594.863
598.779
602.565
606.281
609.85
613.318
616.624
619.797
622.793
625.621
628.253
630.687
632.901
634.888
636.626
638.106
639.305
640.215
640.684
640.873
640.88
640.369
639.665
638.465
636.96
634.96
632.581
629.702
626.392
622.576
618.296
613.501
608.217
602.413
596.128
589.333
582.041
574.355
566.2
557.736
548.892
539.853
530.547
521.139
511.598
502.102
492.678
483.426
474.311
465.424
456.8
448.494
440.44
432.436
424.465
416.631
408.873
400.796
392.489
384.387
377.702
374.481
373.463
373.034
424.103
428.711
430.65
434.489
436.729
440.442
442.862
446.431
448.961
452.393
454.988
458.299
460.92
464.114
466.738
469.81
472.418
475.364
477.925
480.74
483.233
485.901
488.297
490.801
493.071
495.372
497.441
499.498
501.331
503.107
504.664
506.21
507.531
508.778
509.781
510.66
511.28
511.688
511.865
511.905
511.613
511.103
510.309
509.266
507.941
506.343
504.467
502.304
499.862
497.131
494.12
490.823
487.252
483.403
479.311
474.996
470.463
465.681
460.736
455.588
450.329
444.925
439.466
433.923
428.373
422.797
417.285
411.829
406.51
401.325
396.339
391.546
387.042
382.726
378.747
374.992
371.592
368.418
365.573
362.956
360.692
358.665
356.953
355.435
354.17
353.081
352.185
351.41
350.731
350.111
349.535
349.04
348.69
348.545
348.707
350.155
351.91
356.017
358.096
358.356
383.192
386.545
387.901
390.532
391.906
394.348
395.675
397.882
399.118
401.072
402.175
403.877
404.808
406.235
406.983
408.097
408.648
409.406
409.765
410.102
410.228
410.261
410.053
409.692
409.11
408.348
407.355
406.171
404.756
403.142
401.31
399.214
396.883
394.322
391.512
388.505
385.259
381.856
378.238
374.496
370.562
366.537
362.371
358.14
353.825
349.483
345.114
340.762
336.438
332.184
328.01
323.961
320.042
316.296
312.761
309.432
306.353
303.503
300.944
298.632
296.638
294.903
293.494
292.351
291.526
291.003
290.765
290.699
290.966
291.5
292.274
293.297
294.538
296.008
297.675
299.548
301.587
303.81
306.169
308.687
311.308
314.062
316.886
319.815
322.779
325.808
328.822
331.86
334.85
337.834
340.766
343.718
346.693
349.825
353.199
357.258
361.95
367.547
370.516
371.281
323.477
324.645
325.025
325.519
325.71
325.803
325.75
325.487
324.958
324.432
323.435
322.599
321.18
319.968
318.187
316.575
314.446
312.451
309.986
307.638
304.858
302.189
299.139
296.167
292.915
289.73
286.363
283.058
279.638
276.291
272.886
269.568
266.252
263.049
259.895
256.908
253.995
251.276
248.667
246.279
244.028
242.023
240.18
238.595
237.198
236.063
235.13
234.463
234.053
233.873
233.832
234.127
234.609
235.355
236.282
237.447
238.795
240.358
242.106
244.048
246.175
248.48
250.968
253.623
256.461
259.461
262.639
265.975
269.49
273.163
277.015
281.029
285.22
289.578
294.118
298.833
303.733
308.834
314.126
319.621
325.314
331.211
337.304
343.592
350.066
356.726
363.547
370.508
377.563
384.693
391.846
399.004
406.137
413.261
420.41
427.806
435.945
445.377
454.734
459.622
238.447
236.486
235.612
233.756
232.588
230.623
229.211
227.157
225.55
223.452
221.688
219.593
217.725
215.66
213.752
211.76
209.857
207.977
206.142
204.401
202.686
201.123
199.581
198.216
196.9
195.765
194.694
193.82
193.017
192.416
191.895
191.58
191.41
191.352
191.403
191.682
192.014
192.566
193.179
193.995
194.877
195.951
197.093
198.414
199.809
201.367
203.003
204.793
206.664
208.674
210.774
213.007
215.333
217.786
220.331
223
225.767
228.656
231.649
234.764
237.99
241.341
244.811
248.41
252.137
256
260.002
264.149
268.448
272.904
277.527
282.326
287.307
292.482
297.86
303.455
309.279
315.331
321.643
328.22
335.087
342.258
349.754
357.597
365.809
374.417
383.446
392.944
402.949
413.527
424.736
436.656
449.366
462.978
477.598
493.326
510.084
527.285
541.339
547.649
250.585
249.354
248.77
247.476
246.559
245.117
243.889
242.294
240.779
239.046
237.302
235.43
233.502
231.539
229.473
227.45
225.306
223.269
221.107
219.088
216.986
215.03
213.032
211.202
209.365
207.704
206.074
204.639
203.252
202.079
200.981
200.092
199.302
198.721
198.247
198.006
197.894
197.875
198.11
198.445
198.993
199.637
200.479
201.422
202.55
203.778
205.179
206.681
208.344
210.109
212.023
214.037
216.195
218.45
220.843
223.343
225.965
228.699
231.551
234.521
237.606
240.817
244.143
247.602
251.18
254.9
258.745
262.742
266.872
271.163
275.59
280.188
284.941
289.877
294.984
300.287
305.777
311.479
317.388
323.526
329.892
336.51
343.38
350.529
357.961
365.706
373.774
382.203
391.01
400.235
409.895
420.127
430.953
442.536
454.98
468.531
483.36
499.348
513.575
520.22
331.931
333.817
334.521
335.755
336.339
337.265
337.688
338.217
338.425
338.525
338.498
338.235
337.737
337.195
336.249
335.366
334.005
332.745
330.998
329.33
327.223
325.15
322.691
320.24
317.451
314.656
311.571
308.471
305.134
301.787
298.272
294.791
291.203
287.677
284.088
280.604
277.097
273.729
270.4
267.232
264.153
261.26
258.5
255.953
253.582
251.442
249.514
247.836
246.389
245.204
244.265
243.59
243.224
243.071
243.054
243.467
243.965
244.822
245.779
247.05
248.427
250.081
251.841
253.844
255.951
258.274
260.693
263.302
265.998
268.874
271.836
274.96
278.16
281.506
284.918
288.46
292.058
295.771
299.531
303.39
307.285
311.265
315.27
319.32
323.388
327.495
331.622
335.799
340.022
344.337
348.743
353.22
357.878
362.757
368.066
374.011
380.993
389.197
397.04
400.929
386.93
390.656
392.176
395.14
396.735
399.529
401.131
403.73
405.328
407.722
409.281
411.458
412.934
414.891
416.248
417.976
419.174
420.658
421.667
422.881
423.671
424.592
425.13
425.714
425.995
426.149
426.185
426.003
425.605
425.032
424.204
423.186
421.893
420.411
418.639
416.687
414.429
411.944
409.158
406.156
402.868
399.401
395.677
391.796
387.703
383.462
379.074
374.567
369.978
365.313
360.629
355.93
351.273
346.666
342.166
337.778
333.627
329.658
325.959
322.465
319.268
316.316
313.68
311.318
309.278
307.527
306.093
304.947
304.095
303.511
303.226
303.121
303.166
303.581
304.032
304.777
305.533
306.52
307.492
308.644
309.754
310.99
312.17
313.547
314.883
316.409
317.905
319.576
321.261
323.163
325.144
327.375
329.764
332.325
335.273
338.766
343.109
347.99
350.358
350.502
424.146
428.876
430.865
434.803
437.117
440.927
443.434
447.119
449.776
453.358
456.121
459.611
462.445
465.854
468.73
472.061
474.955
478.208
481.095
484.263
487.124
490.194
493.007
495.971
498.706
501.548
504.187
506.879
509.391
511.914
514.258
516.548
518.65
520.673
522.49
524.201
525.712
527.165
528.391
529.499
530.355
531.044
531.416
531.581
531.604
531.205
530.625
529.666
528.473
526.907
525.067
522.857
520.348
517.467
514.27
510.705
506.805
502.565
498.03
493.236
488.197
482.905
477.423
471.747
465.955
460.037
454.084
448.087
442.141
436.235
430.468
424.821
419.385
414.238
409.35
404.826
400.51
396.491
392.63
389.073
385.71
382.663
379.719
376.857
373.993
371.275
368.638
366.013
363.141
360.116
357.16
354.34
351.322
348.389
345.7
344.325
343.803
345.59
347.28
347.249
443.462
448.748
451.004
455.495
458.244
462.654
465.739
470.085
473.428
477.742
481.291
485.596
489.319
493.635
497.502
501.842
505.833
510.201
514.295
518.693
522.876
527.3
531.557
536.009
540.324
544.8
549.162
553.651
558.047
562.539
566.955
571.439
575.853
580.313
584.701
589.109
593.447
597.812
602.094
606.37
610.549
614.688
618.715
622.672
626.498
630.214
633.785
637.21
640.469
643.551
646.442
649.123
651.585
653.805
655.775
657.474
658.821
659.858
660.431
660.678
660.709
660.202
659.479
658.243
656.687
654.611
652.143
649.149
645.718
641.757
637.332
632.376
626.93
620.931
614.441
607.456
600.109
592.408
584.385
575.888
567.048
557.935
548.822
539.434
529.49
518.783
508.046
497.886
487.556
475.088
461.486
449.31
436.572
421.764
406.206
392.642
380.071
371.78
367.905
364.693
445.373
450.364
452.516
456.795
459.464
463.708
466.758
471.004
474.38
478.677
482.338
486.723
490.646
495.15
499.317
503.96
508.36
513.156
517.778
522.738
527.575
532.703
537.748
543.046
548.294
553.763
559.206
564.844
570.474
576.278
582.09
588.053
594.034
600.148
606.287
612.54
618.824
625.204
631.61
638.098
644.607
651.18
657.768
664.402
671.044
677.714
684.377
691.046
697.688
704.308
710.904
717.466
723.991
730.471
736.901
743.285
749.597
755.846
761.996
768.053
773.973
779.768
785.409
790.859
796.102
801.094
805.817
810.226
814.299
817.992
821.278
824.11
826.462
828.184
829.11
829.467
829.439
828.008
826.156
822.965
818.953
813.417
806.685
798.425
788.796
777.157
763.397
747.226
729.049
708.293
684.062
656.52
626.051
592.075
554.451
514.408
474.602
437.786
412.262
397.81
449.658
453.491
455.17
458.474
460.556
463.861
466.256
469.597
472.276
475.698
478.64
482.179
485.374
489.06
492.505
496.365
500.06
504.115
508.064
512.333
516.541
521.038
525.509
530.245
534.986
539.973
544.993
550.246
555.556
561.092
566.708
572.543
578.483
584.64
590.925
597.414
604.043
610.877
617.862
625.049
632.397
639.943
647.653
655.552
663.61
671.889
680.354
689.042
697.94
707.072
716.352
725.827
735.456
745.253
755.193
765.282
775.49
785.822
796.256
806.794
817.422
828.141
838.94
849.814
860.748
871.734
882.75
893.779
904.792
915.789
926.811
937.817
948.826
959.791
970.721
981.571
992.295
1002.79
1013.03
1022.85
1032.22
1040.92
1048.76
1055.31
1060.36
1063.14
1064.17
1062.52
1055.18
1043.46
1026.36
1001.58
965.162
917.482
858.198
783.78
695.941
601.072
517.934
458.524
492.007
494.077
495.046
496.997
498.264
500.325
501.825
503.984
505.695
507.957
509.871
512.247
514.361
516.867
519.177
521.826
524.332
527.141
529.845
532.823
535.732
538.891
542.01
545.36
548.696
552.247
555.81
559.575
563.374
567.366
571.412
575.641
579.942
584.415
588.975
593.738
598.623
603.71
608.948
614.397
620.026
625.883
631.952
638.275
644.854
651.669
658.744
666.076
673.672
681.536
689.728
698.234
707.079
716.262
725.798
735.708
745.995
756.682
767.782
779.32
791.314
803.796
816.79
830.311
844.378
859.008
874.214
890.014
906.418
923.483
941.074
959.103
977.597
996.49
1015.74
1035.29
1055.1
1075.12
1095.34
1115.71
1136.25
1156.94
1177.74
1198.77
1219.97
1241.31
1262.63
1283.43
1302.92
1319.86
1329.71
1333.27
1325.07
1292.63
1237.39
1156.6
1047.05
910.965
747.693
582.556
667.755
667.523
667.653
667.803
668.072
668.584
668.963
669.681
670.198
671.05
671.705
672.672
673.456
674.524
675.431
676.598
677.623
678.89
680.034
681.404
682.67
684.149
685.545
687.142
688.678
690.405
692.094
693.964
695.818
697.844
699.881
702.081
704.322
706.726
709.203
711.822
714.529
717.385
720.347
723.464
726.707
730.114
733.666
737.39
741.277
745.341
749.588
754.026
758.668
763.522
768.606
773.925
779.497
785.333
791.453
797.845
804.544
811.555
818.894
826.574
834.603
843.033
851.928
861.289
871.151
881.554
892.514
904.092
916.303
929.097
942.523
956.755
971.784
987.692
1004.55
1022.39
1041.34
1061.43
1082.78
1105.47
1129.61
1155.31
1182.69
1211.94
1242.07
1273.2
1304.04
1333.21
1358.58
1375.06
1381.84
1382.47
1370.99
1352.21
1318.93
1261.5
1172.57
1055
919.883
765.625
1532.75
1536.73
1537.96
1539.48
1540.13
1540.94
1541.23
1541.49
1541.5
1541.48
1541.24
1541.05
1540.56
1540.2
1539.51
1539.01
1538.14
1537.51
1536.51
1535.76
1534.64
1533.79
1532.58
1531.63
1530.35
1529.31
1527.96
1526.83
1525.43
1524.21
1522.77
1521.46
1519.98
1518.6
1517.09
1515.64
1514.09
1512.58
1511
1509.43
1507.8
1506.17
1504.49
1502.78
1501.01
1499.19
1497.29
1495.31
1493.24
1491.06
1488.78
1486.38
1483.86
1481.23
1478.48
1475.58
1472.46
1469.1
1465.4
1461.31
1456.72
1451.75
1446.58
1441.18
1435.5
1429.6
1423.34
1416.82
1409.89
1402.57
1394.73
1386.45
1377.6
1367.89
1357.61
1346.26
1334.12
1320.76
1306.37
1290.59
1273.52
1254.88
1234.68
1212.64
1188.58
1161.7
1131.3
1094.81
1050.41
994.671
921.141
827.238
725.231
621.403
539.001
493.176
514.891
663.307
794.743
833.998
749.408
300.678
167.157
113.461
89.1971
69.9774
56.6573
51.0084
46.9726
45.6933
46.564
52.725
67.9212
92.6834
140.368
218.154
322.66
439.629
567.689
621.462
609.857
303.036
201.024
144.159
109.302
84.63
72.1683
62.3133
57.534
55.8667
56.9624
67.4387
84.2786
117.37
172.744
253.038
350.422
455.731
556.163
585.533
495.474
296.359
226.015
164.221
126.927
102.631
85.4681
75.5863
71.2325
70.0921
74.2102
86.6534
111.354
151.181
212.512
292.092
378.675
466.699
533.029
546.091
415.676
283.752
235.712
173.355
144.505
116.968
102.225
93.4434
89.8346
89.0864
95.1178
116.569
146.203
193.538
257.189
327.13
396.572
464.377
500.813
504.971
363.514
274.771
239.774
186.203
162.783
135.869
123.654
115.753
113.11
114.013
132.861
158.998
195.174
246.023
301.202
357.033
411.772
450.898
461.334
464.192
329.792
269.394
242.845
198.063
179.051
158.538
150.435
147.328
149.601
165.246
189.426
217.412
255.166
297.171
338.279
378.453
408.139
421.074
410.512
425.809
315.572
274.822
255.749
225.691
213.674
206.091
204.873
210.889
222.894
241.182
262.239
286.426
314.343
340.471
364.25
382.045
391.593
378.082
350.723
391.49
337.144
319.737
312.713
305.14
303.122
302.97
304.223
310.39
317.394
327.986
337.606
349.353
359.26
366.597
370.029
371.601
356.905
319.645
284.81
363.822
450.848
441.778
437.614
424.182
418.089
409.491
405.35
400.104
397.328
393.478
390.434
385.998
380.069
371.024
360.749
339.853
300.97
253.2
220.079
344.773
533.983
516.297
508.584
489.543
480.492
464.65
456.393
442.531
434.307
421.187
411.255
396.245
380.898
358.761
329.276
287.629
240.741
191.609
166.745
332.01
510.552
494.784
488.387
472.429
464.957
452.698
446.582
436.784
431.048
422.128
415.117
404.642
393.649
377.923
351.533
311.749
262.596
205.686
172.057
331.055
388.377
384.344
382.924
377.684
375.132
373.669
373.564
376.987
380.469
385.106
389.433
392.064
393.131
390.683
385.645
370.082
332.736
277.456
233.778
341.356
311.46
286.617
275.716
262.227
259.057
259.068
266.095
275.246
291.041
307.215
327.425
346.591
367.051
382.668
393.097
397.909
387.097
348.985
306.196
363.447
305.324
263.048
242.874
209.862
196.078
184.956
182.102
184.62
199.422
221.263
247.813
279.235
314.798
350.653
382.697
407.998
420.221
408.742
377.258
396.123
321.864
261.048
234.589
190.302
171.519
150.124
141.392
137.565
137.222
151.648
178.196
210.185
253.699
303.145
352.632
400.723
436.348
451.269
438.318
435.408
354.941
267.07
232.093
179.056
155.805
129.525
117.499
110.127
107.561
107.461
125.421
153.313
193.157
249.595
312.412
376.401
439.514
480.779
489.331
477.78
407.642
276.468
228.921
168.495
139.93
112.849
97.5877
89.6821
86.401
85.9044
92.0562
112.995
145.016
196.211
265.647
343.443
420.1
494.397
528.619
522.125
495.254
288.288
217.366
159.575
123.334
100.04
82.4515
73.0089
68.7568
67.6749
72.1978
84.8178
110.362
153.789
219.98
306.904
401.153
496.664
560.518
565.866
630.978
298.263
194.831
137.961
106.243
83.0506
69.9668
60.7759
56.3291
54.7678
56.1182
66.42
83.7692
119.03
178.578
265.301
370.143
483.426
584.987
607.665
781.297
299.753
163.862
109.898
85.1421
69.3128
55.8373
49.4518
45.9143
44.7254
46.0582
52.4962
67.7464
94.6942
146.001
230.003
341.9
465.808
597.527
645.587
646.046
32.1763
12.7367
11.3229
11.19
11.171
11.1705
11.1708
11.1706
11.1705
11.1705
11.1706
11.1708
11.1705
11.171
11.19
11.3229
12.7367
32.1763
646.046
672.717
55.0522
17.0359
12.0862
11.3039
11.1803
11.1547
11.1529
11.1534
11.1536
11.1536
11.1534
11.1529
11.1547
11.1803
11.3039
12.0862
17.0358
55.052
672.716
698.504
71.1121
21.1582
13.3045
11.5877
11.2262
11.1552
11.1382
11.1358
11.1355
11.1355
11.1358
11.1382
11.1552
11.2262
11.5877
13.3045
21.1583
71.1124
698.504
723.171
85.8718
25.1416
14.6475
12.0435
11.3373
11.1684
11.1265
11.1183
11.1171
11.1171
11.1183
11.1265
11.1684
11.3373
12.0435
14.6475
25.1415
85.8715
723.171
746.678
101.823
29.198
16.0635
12.5876
11.5231
11.2064
11.1273
11.105
11.1003
11.1003
11.105
11.1273
11.2064
11.5231
12.5876
16.0635
29.1981
101.823
746.679
769.258
118.389
33.3571
17.5376
13.196
11.762
11.2828
11.1365
11.0944
11.0843
11.0843
11.0944
11.1365
11.2828
11.762
13.196
17.5376
33.357
118.388
769.258
790.801
135.019
37.5777
19.0537
13.8511
12.0435
11.3873
11.1601
11.0918
11.0718
11.0718
11.0918
11.1601
11.3873
12.0435
13.8511
19.0538
37.5777
135.019
790.802
811.022
151.292
41.7905
20.5886
14.5366
12.3577
11.5181
11.2032
11.0956
11.0625
11.0625
11.0956
11.2032
11.5181
12.3577
14.5366
20.5886
41.7905
151.292
811.022
829.915
167.052
45.9651
22.1295
15.242
12.6968
11.6708
11.2604
11.1065
11.0594
11.0594
11.1065
11.2604
11.6707
12.6968
15.242
22.1295
45.9651
167.052
829.916
847.602
182.352
50.1085
23.6758
15.9631
13.0561
11.8427
11.3323
11.129
11.0619
11.0619
11.129
11.3323
11.8427
13.0561
15.9632
23.6758
50.1085
182.351
847.602
864.018
197.108
54.2101
25.2239
16.6962
13.4318
12.0313
11.4178
11.1608
11.0697
11.0697
11.1608
11.4178
12.0313
13.4318
16.6962
25.2239
54.2101
197.108
864.018
879.054
211.197
58.2426
26.765
17.4359
13.8198
12.2338
11.5157
11.2022
11.0862
11.0862
11.2022
11.5157
12.2338
13.8198
17.4359
26.7649
58.2425
211.197
879.054
892.648
224.491
62.1691
28.2866
18.1756
14.2155
12.447
11.6244
11.2529
11.1113
11.1113
11.2529
11.6244
12.447
14.2155
18.1756
28.2866
62.1691
224.491
892.648
904.997
237.092
66.0018
29.7887
18.9134
14.6167
12.669
11.7426
11.3125
11.1446
11.1446
11.3125
11.7426
12.669
14.6167
18.9134
29.7887
66.0017
237.092
904.997
916.073
248.961
69.7408
31.2732
19.6496
15.0225
12.8987
11.8697
11.3809
11.186
11.186
11.3809
11.8697
12.8987
15.0225
19.6496
31.2733
69.7408
248.961
916.073
925.921
260.101
73.3804
32.7381
20.3829
15.4317
13.135
12.0047
11.4575
11.2356
11.2356
11.4575
12.0047
13.135
15.4317
20.3828
32.738
73.3801
260.101
925.921
934.515
270.435
76.8959
34.1755
21.1097
15.8422
13.3764
12.1467
11.5418
11.2931
11.2931
11.5418
12.1467
13.3764
15.8422
21.1097
34.1755
76.896
270.435
934.515
942.024
280.034
80.2888
35.5828
21.8279
16.2521
13.6213
12.2945
11.6331
11.358
11.358
11.6331
12.2945
13.6213
16.2521
21.8279
35.5827
80.2887
280.033
942.024
948.446
288.869
83.5563
36.9596
22.537
16.6608
13.869
12.4475
11.7309
11.4299
11.4299
11.7309
12.4475
13.869
16.6608
22.537
36.9596
83.5562
288.87
948.447
953.936
297.052
86.7087
38.3077
23.2373
17.068
14.1191
12.6051
11.8347
11.5084
11.5084
11.8347
12.6051
14.1191
17.068
23.2373
38.3077
86.7086
297.051
953.936
958.42
304.509
89.7358
39.6254
23.9283
17.4734
14.3711
12.7671
11.9442
11.5933
11.5933
11.9442
12.7671
14.3711
17.4734
23.9283
39.6254
89.7359
304.509
958.421
962.113
311.328
92.6356
40.9094
24.6082
17.8758
14.6242
12.9326
12.0587
11.6841
11.6841
12.0587
12.9326
14.6242
17.8758
24.6082
40.9094
92.6356
311.328
962.113
964.967
317.497
95.4069
42.1583
25.2758
18.2744
14.8777
13.101
12.1778
11.7801
11.7801
12.1778
13.101
14.8777
18.2743
25.2758
42.1583
95.4068
317.496
964.967
967.188
323.107
98.0571
43.3729
25.931
18.6687
15.1311
13.2718
12.3008
11.8808
11.8808
12.3008
13.2718
15.1311
18.6686
25.931
43.3729
98.0571
323.108
967.188
968.652
328.135
100.587
44.554
26.5741
19.0588
15.3843
13.4448
12.4276
11.986
11.986
12.4276
13.4448
15.3843
19.0588
26.5741
44.5541
100.587
328.133
968.652
969.636
332.659
103.001
45.7023
27.2054
19.4448
15.6371
13.6198
12.5578
12.0954
12.0954
12.5578
13.6198
15.6371
19.4447
27.2053
45.7021
103.001
332.66
969.636
969.974
336.692
105.3
46.8169
27.8243
19.8262
15.8893
13.7965
12.691
12.2085
12.2085
12.691
13.7964
15.8893
19.8261
27.8242
46.8168
105.3
336.69
969.975
969.839
340.257
107.484
47.8957
28.4292
20.202
16.14
13.9741
12.8267
12.3249
12.3249
12.8267
13.9741
16.14
20.202
28.4292
47.8957
107.484
340.259
969.839
969.432
343.389
109.556
48.9393
29.0201
20.572
16.389
14.1524
12.9645
12.444
12.444
12.9645
14.1524
16.389
20.572
29.0201
48.9393
109.555
343.387
969.432
968.59
346.145
111.528
49.9517
29.5984
20.9368
16.6364
14.3313
13.1043
12.5657
12.5657
13.1043
14.3313
16.6363
20.9367
29.5983
49.9514
111.528
346.145
968.59
967.387
348.51
113.401
50.9334
30.1648
21.2966
16.8823
14.5107
13.2458
12.6898
12.6898
13.2458
14.5107
16.8823
21.2965
30.1647
50.9333
113.401
348.511
967.388
965.901
350.57
115.179
51.8831
30.718
21.6508
17.1264
14.6905
13.3889
12.816
12.816
13.3889
14.6905
17.1264
21.6508
30.718
51.8831
115.179
350.567
965.902
964.167
352.243
116.856
52.8003
31.2576
21.999
17.3682
14.8701
13.5331
12.944
12.944
13.5331
14.8701
17.3681
21.9989
31.2574
52.7997
116.855
352.243
964.167
962.225
353.673
118.447
53.6855
31.7832
22.3407
17.6073
15.0492
13.678
13.0732
13.0732
13.678
15.0491
17.6072
22.3406
31.783
53.6851
118.446
353.672
962.226
960.093
354.736
119.943
54.541
32.2961
22.6765
17.8439
15.2277
13.8235
13.2036
13.2036
13.8235
15.2277
17.8439
22.6764
32.2959
54.5407
119.943
354.735
960.094
957.813
355.606
121.368
55.3713
32.7978
23.007
18.0783
15.4058
13.9696
13.3351
13.3351
13.9696
15.4057
18.0782
23.0068
32.7973
55.3702
121.365
355.606
957.814
955.408
356.132
122.704
56.1723
33.2868
23.3316
18.3102
15.5832
14.1161
13.4674
13.4674
14.1161
15.5831
18.31
23.3314
33.2864
56.1713
122.702
356.129
955.411
952.913
356.54
123.961
56.9436
33.7624
23.6498
18.5391
15.7597
14.2628
13.6005
13.6005
14.2627
15.7596
18.539
23.6495
33.7619
56.9426
123.959
356.539
952.916
950.342
356.566
125.135
57.6858
34.2248
23.9615
18.765
15.935
14.4094
13.7339
13.7339
14.4093
15.9349
18.7648
23.9611
34.2241
57.6842
125.132
356.564
950.345
947.708
356.466
126.245
58.4046
34.6756
24.2671
18.9878
16.1091
14.5556
13.8675
13.8674
14.5555
16.1089
18.9876
24.2666
34.6745
58.4021
126.24
356.463
947.713
945.05
356.205
127.268
59.0953
35.1138
24.5664
19.2075
16.2816
14.7014
14.001
14.0009
14.7013
16.2814
19.2071
24.5658
35.1126
59.0929
127.263
356.202
945.056
942.367
355.699
128.222
59.7572
35.5382
24.8586
19.4235
16.4524
14.8464
14.1342
14.1342
14.8463
16.4521
19.423
24.8578
35.5366
59.7537
128.214
355.693
942.375
939.711
355.088
129.098
60.3899
35.9486
25.1437
19.6357
16.6214
14.9906
14.2671
14.2671
14.9905
16.621
19.6351
25.1426
35.9465
60.3854
129.089
355.083
939.722
937.056
354.338
129.94
61.0025
36.3473
25.4223
19.8446
16.7887
15.1342
14.3999
14.3998
15.134
16.7883
19.8439
25.4211
36.3448
60.9969
129.928
354.335
937.069
934.456
353.488
130.705
61.5872
36.7328
25.6944
20.0501
16.9544
15.2771
14.5323
14.5322
15.2769
16.954
20.0493
25.693
36.73
61.5808
130.691
353.485
934.472
931.871
352.561
131.453
62.1478
37.1038
25.9588
20.2516
17.118
15.4189
14.6641
14.664
15.4186
17.1174
20.2505
25.9568
37.0998
62.1394
131.436
352.554
931.892
929.394
351.57
132.187
62.6886
37.4583
26.2138
20.4476
17.2783
15.5586
14.7943
14.7942
15.5582
17.2775
20.4462
26.2112
37.4533
62.6777
132.165
351.556
929.42
927.027
350.566
132.94
63.2124
37.7955
26.4582
20.6372
17.4347
15.6957
14.9225
14.9223
15.6952
17.4337
20.6356
26.4552
37.7898
63.2001
132.915
350.559
927.058
924.766
349.622
133.736
63.7225
38.1162
26.6923
20.8207
17.5873
15.8303
15.0488
15.0486
15.8298
17.5862
20.8189
26.6889
38.1094
63.7066
133.7
349.603
924.804
922.613
348.709
134.564
64.2164
38.4207
26.9168
20.9988
17.7368
15.9631
15.1738
15.1736
15.9625
17.7356
20.9967
26.913
38.4131
64.1996
134.531
348.705
922.659
920.575
347.925
135.46
64.701
38.7105
27.1324
21.172
17.8837
16.0945
15.298
15.2977
16.0938
17.8823
21.1695
27.1279
38.7016
64.6816
135.419
347.887
920.629
918.655
347.191
136.411
65.1739
38.9843
27.3378
21.3395
18.0275
16.2243
15.4211
15.4208
16.2235
18.026
21.3367
27.3327
38.9741
65.1509
136.361
347.169
918.719
916.848
346.566
137.38
65.6215
39.2367
27.5301
21.4991
18.1665
16.3507
15.5416
15.5413
16.3499
18.1649
21.4962
27.5246
39.2255
65.5943
137.315
346.524
916.923
915.143
346.022
138.343
66.0351
39.4632
27.7055
21.6478
18.298
16.4715
15.6573
15.657
16.4706
18.2962
21.6447
27.6997
39.4515
66.0073
138.276
345.976
915.229
913.528
345.569
139.344
66.4255
39.6642
27.8624
21.7836
18.4201
16.5851
15.7666
15.7663
16.5841
18.4182
21.7801
27.856
39.6515
66.3954
139.275
345.544
913.624
911.988
345.282
140.378
66.794
39.8413
28.0015
21.907
18.5334
16.6919
15.8702
15.8699
16.6908
18.5314
21.9032
27.9944
39.8264
66.7545
140.269
345.171
912.093
910.519
345.093
141.352
67.1217
39.9939
28.1251
22.0205
18.6404
16.7944
15.9704
15.9701
16.7934
18.6385
22.0169
28.1182
39.979
67.0812
141.24
345.007
910.631
909.12
345.096
142.281
67.4088
40.1229
28.2352
22.1266
18.7435
16.895
16.0698
16.0696
16.8945
18.7423
22.1243
28.2304
40.1121
67.3781
142.198
345.016
909.234
907.773
345.156
143.252
67.6722
40.2305
28.3324
22.2259
18.8435
16.9946
16.169
16.1691
16.9949
18.8438
22.2261
28.3318
40.2267
67.6516
143.165
345.068
907.89
906.447
345.295
144.246
67.9103
40.3161
28.4158
22.3174
18.9392
17.092
16.267
16.2673
17.0933
18.9417
22.3211
28.4212
40.3218
67.9014
144.148
345.179
906.565
905.103
345.414
145.146
68.1056
40.3803
28.4863
22.4008
19.0299
17.1858
16.3622
16.3629
17.1884
19.0345
22.4083
28.4979
40.3965
68.1153
145.083
345.358
905.21
903.713
345.521
145.856
68.249
40.427
28.5468
22.478
19.1167
17.2775
16.4561
16.457
17.2811
19.1234
22.4889
28.5642
40.4537
68.2817
145.867
345.569
903.78
902.256
345.617
146.379
68.3445
40.4608
28.6025
22.5546
19.2058
17.3733
16.5549
16.5561
17.3778
19.2141
22.5681
28.6247
40.4971
68.4039
146.475
345.833
902.242
900.713
345.761
146.8
68.4115
40.491
28.6637
22.6424
19.3097
17.4857
16.6712
16.6725
17.4907
19.3189
22.6578
28.6893
40.5342
68.4939
146.989
346.253
900.583
899.061
346.092
147.214
68.4753
40.5362
28.7502
22.7606
19.4459
17.6312
16.8207
16.8221
17.6366
19.4559
22.7776
28.7792