/*--------------------------------*- C++ -*----------------------------------*\
| =========                 |                                                 |
| \\      /  F ield         | OpenFOAM: The Open Source CFD Toolbox           |
|  \\    /   O peration     | Version:  2.1.0                                 |
|   \\  /    A nd           | Web:      www.OpenFOAM.org                      |
|    \\/     M anipulation  |                                                 |
\*---------------------------------------------------------------------------*/
FoamFile
{
    version     2.0;
    format      ascii;
    class       volScalarField;
    location    "0.16";
    object      p;
}
// * * * * * * * * * * * * * * * * * * * * * * * * * * * * * * * * * * * * * //

dimensions      [1 -1 -2 0 0 0 0];

internalField   nonuniform List<scalar> 
6400
(
99997.3
99995.4
99994.1
99992.9
99991.8
99990.7
99989.6
99988.5
99987.3
99986.1
99984.8
99983.4
99981.9
99980.4
99978.8
99977.2
99975.4
99973.6
99971.7
99969.7
99967.7
99965.6
99963.3
99961.1
99958.7
99956.2
99953.7
99951.1
99948.4
99945.6
99942.7
99939.7
99936.6
99933.4
99930.2
99926.8
99923.3
99919.7
99916
99912.2
99908.3
99904.2
99900
99895.7
99891.3
99886.7
99881.9
99877
99871.9
99866.7
99861.2
99855.6
99849.8
99843.8
99837.6
99831.2
99824.6
99817.8
99810.7
99803.4
99795.8
99788
99779.8
99771.4
99762.7
99753.7
99744.3
99734.5
99724.4
99714
99703.1
99691.8
99680.1
99668
99655.5
99642.5
99629.1
99615.2
99600.9
99586.1
99570.7
99554.8
99538.2
99520.8
99502.5
99483.1
99462.2
99439.5
99414.6
99387.1
99356.9
99324.8
99292.7
99262.3
99233.8
99201.4
99150
99043.4
98694.5
97168.7
99995.8
99994.7
99993.6
99992.5
99991.4
99990.4
99989.3
99988.2
99987
99985.7
99984.4
99983
99981.6
99980.1
99978.5
99976.8
99975.1
99973.2
99971.3
99969.4
99967.3
99965.2
99962.9
99960.7
99958.3
99955.8
99953.3
99950.6
99947.9
99945.1
99942.2
99939.2
99936.2
99933
99929.7
99926.3
99922.8
99919.2
99915.5
99911.7
99907.8
99903.7
99899.5
99895.2
99890.8
99886.2
99881.4
99876.5
99871.4
99866.2
99860.7
99855.1
99849.4
99843.4
99837.2
99830.8
99824.2
99817.4
99810.4
99803.1
99795.5
99787.7
99779.6
99771.2
99762.5
99753.5
99744.2
99734.5
99724.5
99714
99703.2
99692
99680.4
99668.3
99655.8
99642.9
99629.5
99615.7
99601.4
99586.6
99571.3
99555.3
99538.8
99521.4
99503.2
99483.8
99462.9
99440.3
99415.6
99388.3
99358.4
99326.6
99294.4
99264
99237.5
99209.5
99163.6
99071.6
98790.3
98270.8
99994.6
99994.1
99993.2
99992.2
99991.2
99990.1
99989.1
99988
99986.8
99985.6
99984.3
99982.9
99981.4
99979.9
99978.3
99976.6
99974.9
99973.1
99971.2
99969.2
99967.1
99965
99962.8
99960.5
99958.1
99955.7
99953.1
99950.5
99947.8
99945
99942.1
99939.1
99936
99932.9
99929.6
99926.2
99922.8
99919.2
99915.5
99911.7
99907.8
99903.7
99899.5
99895.2
99890.8
99886.2
99881.5
99876.6
99871.6
99866.4
99861
99855.4
99849.7
99843.8
99837.6
99831.3
99824.7
99818
99811
99803.7
99796.2
99788.4
99780.4
99772.1
99763.5
99754.5
99745.3
99735.6
99725.7
99715.4
99704.7
99693.5
99682
99670.1
99657.8
99645
99631.7
99618
99603.8
99589.2
99573.9
99558.1
99541.6
99524.3
99506
99486.6
99465.8
99443.3
99418.8
99391.9
99363
99332.7
99302.9
99275.3
99252.1
99228.1
99197.2
99142.5
99000
99098.7
99993.1
99993.4
99992.8
99992
99991.1
99990.1
99989.1
99988
99986.9
99985.6
99984.3
99983
99981.5
99980
99978.4
99976.8
99975
99973.2
99971.4
99969.4
99967.4
99965.2
99963
99960.8
99958.4
99956
99953.4
99950.8
99948.1
99945.4
99942.5
99939.5
99936.5
99933.3
99930.1
99926.7
99923.3
99919.7
99916
99912.2
99908.3
99904.3
99900.2
99895.9
99891.5
99887
99882.3
99877.5
99872.5
99867.3
99862
99856.5
99850.8
99844.9
99838.8
99832.5
99826
99819.3
99812.3
99805.1
99797.7
99790
99782
99773.8
99765.2
99756.3
99747.1
99737.6
99727.7
99717.4
99706.7
99695.7
99684.2
99672.3
99659.9
99647.1
99633.9
99620.1
99605.8
99591
99575.6
99559.5
99542.8
99525.2
99506.7
99487.1
99466.1
99443.5
99419.1
99393
99365.4
99337.6
99311.8
99289.5
99272.9
99263.3
99261.7
99271
99304.5
99720.1
99991.4
99992.6
99992.5
99991.9
99991.1
99990.3
99989.3
99988.3
99987.1
99985.9
99984.7
99983.3
99981.9
99980.4
99978.8
99977.2
99975.5
99973.7
99971.8
99969.9
99967.9
99965.8
99963.6
99961.4
99959
99956.6
99954.1
99951.5
99948.9
99946.1
99943.3
99940.3
99937.3
99934.1
99930.9
99927.6
99924.2
99920.6
99917
99913.2
99909.3
99905.3
99901.2
99897
99892.6
99888.1
99883.4
99878.6
99873.6
99868.5
99863.2
99857.7
99852
99846.1
99840
99833.8
99827.3
99820.6
99813.6
99806.5
99799
99791.3
99783.3
99775.1
99766.5
99757.6
99748.4
99738.8
99728.9
99718.6
99707.9
99696.7
99685.2
99673.2
99660.8
99647.9
99634.6
99620.7
99606.3
99591.3
99575.7
99559.4
99542.4
99524.6
99505.8
99485.8
99464.7
99442.1
99418.1
99392.9
99367.1
99342.5
99322
99306.9
99301.6
99313.6
99352.9
99446.1
99644.3
100208
99989.7
99991.8
99992.2
99991.9
99991.3
99990.6
99989.7
99988.7
99987.6
99986.4
99985.2
99983.9
99982.5
99981
99979.4
99977.8
99976.1
99974.3
99972.5
99970.6
99968.6
99966.5
99964.3
99962.1
99959.8
99957.4
99954.9
99952.3
99949.7
99946.9
99944.1
99941.1
99938.1
99935
99931.8
99928.4
99925
99921.5
99917.8
99914.1
99910.2
99906.2
99902
99897.8
99893.4
99888.8
99884.2
99879.3
99874.3
99869.2
99863.8
99858.3
99852.6
99846.7
99840.6
99834.3
99827.8
99821.1
99814.2
99807
99799.5
99791.8
99783.8
99775.5
99766.9
99758
99748.8
99739.3
99729.3
99719
99708.3
99697.2
99685.6
99673.6
99661.2
99648.2
99634.8
99620.7
99606.2
99591
99575.2
99558.6
99541.3
99523.1
99503.9
99483.7
99462.3
99439.7
99416.1
99391.9
99368.1
99347
99332
99325.4
99334.3
99372.3
99459
99640.6
99969.1
100588
99988.2
99991.1
99992
99992
99991.6
99990.9
99990.1
99989.2
99988.1
99986.9
99985.7
99984.4
99983
99981.5
99980
99978.3
99976.6
99974.9
99973
99971.1
99969.1
99967
99964.9
99962.6
99960.3
99957.9
99955.4
99952.8
99950.1
99947.4
99944.5
99941.6
99938.5
99935.4
99932.2
99928.8
99925.4
99921.8
99918.2
99914.4
99910.5
99906.5
99902.3
99898
99893.6
99889.1
99884.4
99879.5
99874.5
99869.3
99864
99858.5
99852.8
99846.9
99840.8
99834.5
99828
99821.3
99814.3
99807.1
99799.7
99792
99784
99775.7
99767.1
99758.2
99749
99739.4
99729.5
99719.2
99708.6
99697.4
99685.8
99673.8
99661.3
99648.2
99634.7
99620.5
99605.8
99590.4
99574.3
99557.5
99539.8
99521.2
99501.7
99481
99459.4
99436.8
99413.5
99390.2
99368.4
99350.4
99340.6
99342.6
99365.8
99430.4
99564.5
99826.1
100246
100874
99987
99990.5
99991.7
99991.9
99991.7
99991.1
99990.3
99989.4
99988.4
99987.2
99986
99984.6
99983.2
99981.8
99980.2
99978.6
99976.9
99975.1
99973.2
99971.3
99969.3
99967.2
99965.1
99962.8
99960.5
99958.1
99955.5
99952.9
99950.3
99947.5
99944.6
99941.7
99938.6
99935.5
99932.2
99928.8
99925.4
99921.8
99918.1
99914.3
99910.4
99906.4
99902.2
99897.9
99893.5
99888.9
99884.2
99879.3
99874.3
99869.1
99863.8
99858.3
99852.6
99846.7
99840.6
99834.3
99827.8
99821.1
99814.2
99807
99799.6
99791.9
99783.9
99775.6
99767.1
99758.2
99749
99739.5
99729.6
99719.3
99708.7
99697.6
99686
99673.9
99661.3
99648.2
99634.6
99620.3
99605.5
99589.9
99573.6
99556.4
99538.4
99519.4
99499.4
99478.4
99456.4
99433.7
99410.6
99388.1
99367.8
99352.5
99346.8
99356.3
99392.7
99480.1
99654.7
99979.8
100458
101075
99986.4
99990.1
99991.5
99991.9
99991.7
99991.2
99990.4
99989.5
99988.4
99987.2
99986
99984.7
99983.2
99981.7
99980.2
99978.5
99976.8
99975
99973.2
99971.2
99969.2
99967.1
99964.9
99962.6
99960.3
99957.8
99955.3
99952.7
99950
99947.2
99944.3
99941.3
99938.2
99935.1
99931.8
99928.4
99924.9
99921.3
99917.6
99913.8
99909.9
99905.9
99901.7
99897.4
99893
99888.4
99883.7
99878.9
99873.9
99868.7
99863.4
99857.9
99852.2
99846.4
99840.3
99834.1
99827.6
99820.9
99814
99806.9
99799.5
99791.8
99784
99775.7
99767.2
99758.3
99749.2
99739.7
99729.8
99719.5
99708.8
99697.8
99686.3
99674.3
99661.7
99648.6
99634.9
99620.5
99605.5
99589.7
99573.1
99555.6
99537.2
99517.8
99497.4
99475.9
99453.5
99430.6
99407.6
99385.5
99366.2
99352.7
99349.8
99364.7
99411.1
99514.6
99718
100086
100597
101200
99986.3
99989.9
99991.3
99991.8
99991.6
99991.1
99990.3
99989.4
99988.3
99987.1
99985.8
99984.4
99982.9
99981.4
99979.8
99978.1
99976.3
99974.5
99972.6
99970.6
99968.5
99966.4
99964.1
99961.8
99959.5
99957
99954.5
99951.9
99949.2
99946.4
99943.5
99940.6
99937.5
99934.3
99931.1
99927.8
99924.3
99920.8
99917.1
99913.3
99909.4
99905.4
99901.3
99897
99892.6
99888.1
99883.4
99878.6
99873.6
99868.5
99863.2
99857.7
99852.1
99846.2
99840.2
99834
99827.6
99820.9
99814
99806.9
99799.5
99791.9
99783.9
99775.8
99767.4
99758.6
99749.5
99740.1
99730.2
99720
99709.4
99698.3
99686.9
99674.8
99662.2
99649.1
99635.3
99620.8
99605.6
99589.6
99572.7
99554.9
99536.2
99516.3
99495.4
99473.5
99450.7
99427.4
99404.2
99382.3
99363.5
99350.8
99349.2
99366.7
99418.2
99529.9
99747.2
100136
100661
101257
99986.4
99990
99991.4
99991.8
99991.7
99991.1
99990.3
99989.4
99988.3
99987.1
99985.8
99984.4
99982.9
99981.4
99979.8
99978.1
99976.3
99974.5
99972.6
99970.6
99968.5
99966.4
99964.2
99961.9
99959.5
99957
99954.5
99951.9
99949.2
99946.4
99943.5
99940.6
99937.5
99934.4
99931.1
99927.8
99924.3
99920.8
99917.1
99913.3
99909.4
99905.4
99901.3
99897
99892.7
99888.1
99883.4
99878.6
99873.6
99868.5
99863.2
99857.8
99852.1
99846.3
99840.3
99834.1
99827.7
99821
99814.2
99807.1
99799.8
99792.1
99784.3
99776.2
99767.8
99759
99750
99740.6
99730.8
99720.6
99710
99699
99687.5
99675.5
99662.9
99649.6
99635.8
99621.2
99605.8
99589.6
99572.5
99554.4
99535.2
99514.9
99493.6
99471.1
99447.8
99424
99400.5
99378.3
99359.3
99346.5
99344.7
99362.1
99413.2
99524.1
99739.8
100126
100649
101245
99986.9
99990.4
99991.7
99992
99991.8
99991.2
99990.4
99989.4
99988.3
99987.1
99985.9
99984.5
99983.1
99981.5
99979.9
99978.3
99976.5
99974.7
99972.8
99970.9
99968.8
99966.7
99964.5
99962.2
99959.9
99957.4
99954.9
99952.3
99949.6
99946.8
99944
99941
99937.9
99934.8
99931.5
99928.2
99924.7
99921.1
99917.5
99913.7
99909.8
99905.8
99901.6
99897.3
99892.9
99888.4
99883.7
99878.9
99873.9
99868.8
99863.5
99858
99852.3
99846.5
99840.5
99834.4
99827.9
99821.3
99814.5
99807.4
99800.1
99792.5
99784.7
99776.6
99768.2
99759.5
99750.5
99741.1
99731.4
99721.2
99710.7
99699.7
99688.2
99676.2
99663.6
99650.3
99636.4
99621.7
99606.1
99589.7
99572.4
99553.9
99534.4
99513.7
99491.8
99468.8
99444.9
99420.5
99396.3
99373.5
99353.8
99339.9
99336.5
99351
99396.7
99497.8
99696.2
100057
100563
101166
99987.9
99991
99992
99992.1
99991.8
99991.1
99990.3
99989.3
99988.2
99987
99985.8
99984.4
99983
99981.5
99979.9
99978.2
99976.5
99974.7
99972.8
99970.9
99968.8
99966.7
99964.5
99962.3
99959.9
99957.5
99955
99952.4
99949.7
99947
99944.1
99941.2
99938.1
99935
99931.7
99928.4
99924.9
99921.4
99917.7
99914
99910.1
99906.1
99901.9
99897.7
99893.3
99888.8
99884.1
99879.3
99874.3
99869.2
99863.9
99858.4
99852.8
99847
99841
99834.8
99828.4
99821.8
99814.9
99807.9
99800.6
99793
99785.2
99777.1
99768.8
99760.1
99751.1
99741.8
99732.1
99722
99711.4
99700.5
99689
99677
99664.4
99651.1
99637.1
99622.3
99606.6
99590
99572.4
99553.7
99533.8
99512.7
99490.3
99466.7
99442.1
99417
99392
99368.4
99347.4
99331.6
99325.3
99334.4
99370.3
99453.3
99620.2
99935
100405
101021
99989.2
99991.8
99992.4
99992.2
99991.7
99991
99990.1
99989.1
99988
99986.7
99985.5
99984.1
99982.7
99981.2
99979.6
99977.9
99976.2
99974.4
99972.5
99970.6
99968.6
99966.5
99964.3
99962
99959.7
99957.3
99954.8
99952.2
99949.5
99946.7
99943.9
99940.9
99937.9
99934.8
99931.6
99928.2
99924.8
99921.3
99917.6
99913.9
99910
99906
99901.9
99897.7
99893.3
99888.8
99884.1
99879.3
99874.4
99869.3
99864
99858.6
99852.9
99847.2
99841.2
99835
99828.7
99822.1
99815.3
99808.3
99801
99793.5
99785.7
99777.7
99769.4
99760.8
99751.8
99742.5
99732.9
99722.8
99712.3
99701.4
99690
99677.9
99665.3
99652
99637.9
99623.1
99607.3
99590.6
99572.8
99553.8
99533.6
99512.1
99489.2
99465.1
99439.8
99413.8
99387.8
99362.9
99340.4
99322.4
99312
99314
99336.7
99395.8
99520.2
99768.7
100177
100802
99990.9
99992.6
99992.7
99992.3
99991.6
99990.7
99989.7
99988.7
99987.5
99986.3
99985
99983.6
99982.2
99980.6
99979.1
99977.4
99975.7
99973.9
99972
99970
99968
99965.9
99963.7
99961.5
99959.1
99956.7
99954.2
99951.6
99949
99946.2
99943.4
99940.4
99937.4
99934.3
99931.1
99927.8
99924.3
99920.8
99917.2
99913.4
99909.6
99905.6
99901.5
99897.3
99892.9
99888.5
99883.8
99879
99874.1
99869
99863.8
99858.4
99852.8
99847
99841.1
99834.9
99828.6
99822.1
99815.3
99808.3
99801.1
99793.7
99786
99778
99769.7
99761.2
99752.3
99743
99733.4
99723.4
99713
99702.1
99690.7
99678.7
99666.1
99652.8
99638.7
99623.8
99608
99591.2
99573.2
99554.1
99533.6
99511.7
99488.5
99463.8
99437.8
99410.8
99383.7
99357.3
99333.1
99312.4
99297.6
99292
99300.1
99332.3
99408.6
99575.2
99887.3
100501
99992.6
99993.4
99993.1
99992.4
99991.5
99990.5
99989.4
99988.3
99987.1
99985.9
99984.5
99983.1
99981.7
99980.1
99978.5
99976.8
99975.1
99973.3
99971.4
99969.4
99967.4
99965.3
99963.1
99960.8
99958.5
99956
99953.5
99950.9
99948.2
99945.5
99942.6
99939.6
99936.6
99933.5
99930.2
99926.9
99923.5
99920
99916.3
99912.6
99908.7
99904.8
99900.7
99896.4
99892.1
99887.6
99883
99878.2
99873.3
99868.2
99863
99857.6
99852.1
99846.4
99840.5
99834.4
99828.1
99821.6
99814.9
99807.9
99800.8
99793.4
99785.7
99777.8
99769.6
99761.1
99752.2
99743.1
99733.5
99723.6
99713.2
99702.3
99690.9
99679
99666.4
99653.2
99639.1
99624.2
99608.4
99591.4
99573.4
99554.1
99533.4
99511.3
99487.7
99462.5
99435.9
99408.1
99379.8
99351.8
99325.6
99302.5
99284.3
99271.3
99265.1
99271.6
99300.1
99377.3
99555.4
100106
99994.3
99994.3
99993.5
99992.5
99991.5
99990.4
99989.3
99988.1
99986.9
99985.6
99984.3
99982.9
99981.4
99979.8
99978.2
99976.5
99974.7
99972.9
99971
99969
99966.9
99964.8
99962.6
99960.3
99957.9
99955.5
99952.9
99950.3
99947.6
99944.8
99941.9
99939
99935.9
99932.7
99929.5
99926.1
99922.7
99919.1
99915.5
99911.7
99907.8
99903.8
99899.7
99895.5
99891.1
99886.6
99881.9
99877.2
99872.2
99867.2
99861.9
99856.5
99851
99845.2
99839.3
99833.2
99826.9
99820.4
99813.7
99806.8
99799.6
99792.2
99784.6
99776.7
99768.5
99760.1
99751.3
99742.2
99732.7
99722.8
99712.5
99701.7
99690.4
99678.5
99666
99652.8
99638.8
99623.9
99608
99591.1
99573
99553.6
99532.8
99510.5
99486.6
99461
99433.9
99405.4
99376
99346.5
99318.5
99293.2
99272
99253.9
99236.2
99221.3
99209.4
99202.8
99213.2
99605.2
99995.7
99995
99993.9
99992.8
99991.6
99990.5
99989.4
99988.2
99986.9
99985.6
99984.2
99982.8
99981.3
99979.8
99978.1
99976.4
99974.6
99972.8
99970.9
99968.9
99966.8
99964.6
99962.4
99960.1
99957.7
99955.2
99952.7
99950.1
99947.3
99944.5
99941.6
99938.6
99935.6
99932.4
99929.1
99925.8
99922.3
99918.7
99915.1
99911.3
99907.4
99903.3
99899.2
99894.9
99890.5
99886
99881.3
99876.5
99871.5
99866.4
99861.1
99855.7
99850.1
99844.3
99838.4
99832.2
99825.9
99819.3
99812.6
99805.6
99798.4
99791
99783.3
99775.4
99767.2
99758.7
99749.9
99740.7
99731.2
99721.3
99711
99700.2
99688.8
99676.9
99664.4
99651.2
99637.1
99622.2
99606.4
99589.4
99571.2
99551.8
99530.9
99508.5
99484.5
99458.7
99431.2
99402.2
99372
99341.4
99312
99285.2
99261.7
99241.7
99216.6
99187.3
99147
99076.7
98909.4
98968.6
99996.9
99995.6
99994.3
99993.1
99991.9
99990.8
99989.6
99988.4
99987.1
99985.8
99984.5
99983
99981.5
99980
99978.3
99976.6
99974.8
99973
99971.1
99969.1
99967
99964.8
99962.6
99960.3
99957.9
99955.4
99952.9
99950.2
99947.5
99944.7
99941.8
99938.8
99935.7
99932.6
99929.3
99925.9
99922.5
99918.9
99915.2
99911.4
99907.5
99903.4
99899.3
99895
99890.6
99886.1
99881.4
99876.5
99871.6
99866.4
99861.1
99855.7
99850
99844.2
99838.2
99832
99825.6
99819.1
99812.3
99805.3
99798.1
99790.6
99782.9
99774.9
99766.7
99758.1
99749.3
99740.1
99730.5
99720.6
99710.2
99699.3
99687.9
99675.9
99663.3
99650
99635.8
99620.8
99604.7
99587.6
99569.3
99549.6
99528.5
99505.8
99481.4
99455.3
99427.4
99397.7
99366.6
99334.9
99304
99275.3
99248.8
99225.5
99204.1
99170.4
99114.7
99007.3
98700.1
98113.7
99998.3
99996.4
99994.9
99993.6
99992.4
99991.2
99990
99988.8
99987.5
99986.2
99984.8
99983.4
99981.9
99980.3
99978.7
99977
99975.2
99973.4
99971.5
99969.5
99967.4
99965.3
99963
99960.7
99958.3
99955.9
99953.3
99950.7
99948
99945.2
99942.3
99939.3
99936.2
99933.1
99929.8
99926.4
99923
99919.4
99915.7
99911.9
99908
99904
99899.8
99895.5
99891.1
99886.6
99881.9
99877.1
99872.1
99867
99861.7
99856.2
99850.6
99844.8
99838.8
99832.6
99826.3
99819.7
99812.9
99805.9
99798.7
99791.2
99783.5
99775.5
99767.2
99758.7
99749.8
99740.6
99731.1
99721.1
99710.7
99699.8
99688.4
99676.5
99663.8
99650.5
99636.3
99621.3
99605.2
99588.1
99569.7
99550
99528.9
99506.1
99481.7
99455.4
99427.4
99397.6
99366.4
99334.7
99304
99275.4
99249.8
99224.2
99192.3
99150.4
99092.1
98975.1
98603
96968.5
100625
101849
102370
102665
102866
103015
103132
103227
103304
103368
103421
103466
103503
103533
103557
103575
103588
103596
103598
103594
100576
101565
102173
102554
102807
102988
103125
103231
103317
103386
103443
103489
103527
103557
103581
103598
103610
103615
103615
103607
100849
101592
102115
102494
102766
102965
103116
103232
103325
103399
103458
103507
103545
103575
103598
103614
103624
103628
103627
103615
101109
101713
102157
102501
102765
102967
103122
103244
103341
103418
103479
103528
103566
103595
103616
103631
103638
103641
103638
103620
101330
101842
102230
102541
102789
102986
103141
103264
103362
103440
103502
103551
103588
103616
103635
103647
103652
103652
103648
103624
101514
101960
102308
102594
102827
103015
103167
103289
103387
103465
103526
103574
103610
103636
103653
103662
103665
103663
103655
103627
101662
102061
102381
102648
102868
103049
103196
103316
103413
103490
103551
103598
103632
103655
103670
103676
103676
103672
103661
103629
101772
102139
102440
102693
102904
103079
103224
103342
103438
103515
103575
103620
103652
103673
103685
103688
103686
103680
103665
103631
101844
102191
102481
102726
102932
103104
103247
103364
103459
103535
103594
103639
103669
103689
103697
103699
103695
103686
103668
103633
101878
102217
102502
102743
102947
103118
103260
103376
103471
103546
103605
103649
103680
103698
103706
103705
103700
103690
103670
103635
101866
102206
102492
102734
102939
103110
103252
103369
103464
103541
103600
103645
103676
103694
103703
103703
103697
103687
103669
103635
101814
102164
102455
102702
102910
103084
103228
103347
103444
103521
103582
103628
103661
103681
103691
103694
103690
103681
103666
103633
101727
102099
102402
102658
102873
103051
103198
103319
103417
103497
103559
103607
103641
103664
103677
103682
103681
103675
103661
103630
101604
102008
102332
102603
102828
103013
103165
103288
103388
103469
103533
103582
103619
103645
103661
103669
103670
103666
103656
103624
101444
101897
102250
102542
102780
102974
103130
103257
103359
103441
103506
103556
103595
103624
103643
103653
103658
103656
103649
103621
101249
101769
102163
102482
102737
102939
103100
103228
103331
103413
103479
103531
103571
103602
103623
103637
103644
103645
103641
103617
101018
101632
102083
102436
102708
102917
103079
103206
103308
103389
103454
103507
103548
103580
103604
103620
103629
103632
103630
103612
100747
101501
102036
102425
102706
102913
103070
103193
103290
103369
103433
103484
103526
103559
103584
103602
103614
103618
103617
103606
100461
101470
102093
102486
102748
102936
103079
103192
103282
103355
103416
103466
103507
103540
103566
103585
103598
103605
103605
103597
100501
101757
102293
102598
102807
102963
103086
103186
103268
103336
103393
103441
103481
103513
103540
103560
103575
103584
103586
103582
103430
103428
103427
103426
103426
103425
103424
103424
103424
103424
103424
103424
103424
103424
103425
103426
103426
103427
103428
103430
103427
103425
103424
103424
103424
103423
103423
103423
103423
103423
103423
103423
103423
103423
103423
103424
103424
103424
103425
103427
103426
103424
103424
103424
103424
103424
103424
103424
103424
103424
103424
103424
103424
103424
103424
103424
103424
103424
103424
103426
103426
103424
103424
103424
103424
103424
103424
103424
103424
103424
103424
103424
103424
103424
103424
103424
103424
103424
103424
103426
103426
103424
103424
103424
103424
103424
103424
103424
103424
103424
103424
103424
103424
103424
103424
103424
103424
103424
103424
103426
103425
103423
103423
103423
103423
103423
103423
103423
103423
103423
103423
103423
103423
103423
103423
103423
103423
103423
103423
103425
103425
103423
103423
103423
103422
103422
103422
103422
103422
103422
103422
103422
103422
103422
103422
103422
103423
103423
103423
103425
103424
103422
103422
103422
103422
103422
103422
103422
103422
103422
103422
103422
103422
103422
103422
103422
103422
103422
103422
103424
103423
103422
103421
103421
103421
103421
103421
103421
103421
103421
103421
103421
103421
103421
103421
103421
103421
103421
103422
103423
103423
103421
103421
103421
103421
103420
103420
103420
103420
103420
103420
103420
103420
103420
103420
103421
103421
103421
103421
103423
103422
103420
103420
103420
103420
103420
103420
103420
103420
103420
103420
103420
103420
103420
103420
103420
103420
103420
103420
103422
103421
103419
103419
103419
103419
103419
103419
103419
103419
103419
103419
103419
103419
103419
103419
103419
103419
103419
103419
103421
103420
103419
103419
103419
103418
103418
103418
103418
103418
103418
103418
103418
103418
103418
103418
103418
103419
103419
103419
103420
103420
103418
103418
103418
103418
103418
103418
103418
103418
103418
103418
103418
103418
103418
103418
103418
103418
103418
103418
103420
103419
103417
103417
103417
103417
103417
103417
103417
103417
103417
103417
103417
103417
103417
103417
103417
103417
103417
103417
103419
103418
103417
103416
103416
103416
103416
103416
103416
103416
103416
103416
103416
103416
103416
103416
103416
103416
103416
103417
103418
103417
103416
103416
103416
103415
103415
103415
103415
103415
103415
103415
103415
103415
103415
103415
103415
103416
103416
103416
103417
103416
103415
103415
103415
103415
103415
103415
103415
103415
103414
103414
103415
103415
103415
103415
103415
103415
103415
103415
103416
103416
103414
103414
103414
103414
103414
103414
103414
103414
103414
103414
103414
103414
103414
103414
103414
103414
103414
103414
103416
103415
103413
103413
103413
103413
103413
103413
103413
103413
103413
103413
103413
103413
103413
103413
103413
103413
103413
103413
103415
103414
103413
103412
103412
103412
103412
103412
103412
103412
103412
103412
103412
103412
103412
103412
103412
103412
103412
103413
103414
103413
103412
103412
103412
103412
103411
103411
103411
103411
103411
103411
103411
103411
103411
103411
103412
103412
103412
103412
103413
103412
103411
103411
103411
103411
103411
103411
103411
103411
103411
103411
103411
103411
103411
103411
103411
103411
103411
103411
103412
103411
103410
103410
103410
103410
103410
103410
103410
103410
103410
103410
103410
103410
103410
103410
103410
103410
103410
103410
103411
103411
103409
103409
103409
103409
103409
103409
103409
103409
103409
103409
103409
103409
103409
103409
103409
103409
103409
103409
103411
103410
103409
103408
103408
103408
103408
103408
103408
103408
103408
103408
103408
103408
103408
103408
103408
103408
103408
103409
103410
103409
103408
103408
103408
103408
103407
103407
103407
103407
103407
103407
103407
103407
103407
103407
103408
103408
103408
103408
103409
103408
103407
103407
103407
103407
103407
103407
103407
103407
103407
103407
103407
103407
103407
103407
103407
103407
103407
103407
103408
103407
103406
103406
103406
103406
103406
103406
103406
103406
103406
103406
103406
103406
103406
103406
103406
103406
103406
103406
103407
103406
103405
103405
103405
103405
103405
103405
103405
103405
103405
103405
103405
103405
103405
103405
103405
103405
103405
103405
103406
103405
103405
103404
103404
103404
103404
103404
103404
103404
103404
103404
103404
103404
103404
103404
103404
103404
103404
103405
103405
103405
103404
103404
103404
103404
103403
103403
103403
103403
103403
103403
103403
103403
103403
103403
103404
103404
103404
103404
103405
103404
103403
103403
103403
103403
103403
103403
103403
103403
103403
103403
103403
103403
103403
103403
103403
103403
103403
103403
103404
103403
103402
103402
103402
103402
103402
103402
103402
103402
103402
103402
103402
103402
103402
103402
103402
103402
103402
103402
103403
103402
103401
103401
103401
103401
103401
103401
103401
103401
103401
103401
103401
103401
103401
103401
103401
103401
103401
103401
103402
103401
103401
103400
103400
103400
103400
103400
103400
103400
103400
103400
103400
103400
103400
103400
103400
103400
103400
103401
103401
103400
103400
103400
103400
103400
103400
103399
103399
103399
103399
103399
103399
103399
103399
103400
103400
103400
103400
103400
103400
103400
103399
103399
103399
103399
103399
103399
103399
103399
103399
103399
103399
103399
103399
103399
103399
103399
103399
103399
103400
103399
103398
103398
103398
103398
103398
103398
103398
103398
103398
103398
103398
103398
103398
103398
103398
103398
103398
103398
103399
103398
103397
103397
103397
103397
103397
103397
103397
103397
103397
103397
103397
103397
103397
103397
103397
103397
103397
103397
103398
103397
103397
103397
103397
103396
103396
103396
103396
103396
103396
103396
103396
103396
103396
103396
103396
103397
103397
103397
103397
103396
103396
103396
103396
103396
103396
103396
103396
103396
103396
103396
103396
103396
103396
103396
103396
103396
103396
103396
103396
103396
103395
103395
103395
103395
103395
103395
103395
103395
103395
103395
103395
103395
103395
103395
103395
103395
103395
103395
103396
103395
103394
103394
103394
103394
103394
103394
103394
103394
103394
103394
103394
103394
103394
103394
103394
103394
103394
103394
103395
103394
103394
103394
103394
103393
103393
103393
103393
103393
103393
103393
103393
103393
103393
103393
103393
103394
103394
103394
103394
103393
103393
103393
103393
103393
103393
103393
103393
103393
103393
103393
103393
103393
103393
103393
103393
103393
103393
103393
103393
103393
103392
103392
103392
103392
103392
103392
103392
103392
103392
103392
103392
103392
103392
103392
103392
103392
103392
103392
103393
103392
103391
103391
103391
103391
103391
103391
103391
103391
103391
103391
103391
103391
103391
103391
103391
103391
103391
103391
103392
103391
103391
103391
103391
103391
103391
103391
103391
103391
103391
103391
103391
103391
103391
103391
103391
103391
103391
103391
103391
103390
103390
103390
103390
103390
103390
103390
103390
103390
103390
103390
103390
103390
103390
103390
103390
103390
103390
103390
103390
103390
103389
103389
103389
103389
103389
103389
103389
103389
103389
103389
103389
103389
103389
103389
103389
103389
103389
103389
103390
103389
103389
103389
103388
103388
103388
103388
103388
103388
103388
103388
103388
103388
103388
103388
103388
103388
103389
103389
103389
103388
103388
103388
103388
103388
103388
103388
103388
103388
103388
103388
103388
103388
103388
103388
103388
103388
103388
103388
103388
103387
103387
103387
103387
103387
103387
103387
103387
103387
103387
103387
103387
103387
103387
103387
103387
103387
103387
103387
103387
103387
103387
103386
103386
103386
103386
103386
103386
103386
103386
103386
103386
103386
103386
103386
103386
103386
103386
103387
103387
103386
103386
103386
103386
103386
103386
103386
103386
103386
103386
103386
103386
103386
103386
103386
103386
103386
103386
103386
103386
103386
103385
103385
103385
103385
103385
103385
103385
103385
103385
103385
103385
103385
103385
103385
103385
103385
103385
103385
103386
103385
103385
103385
103385
103385
103385
103385
103385
103385
103385
103385
103385
103385
103385
103385
103385
103385
103385
103385
103385
103384
103384
103384
103384
103384
103384
103384
103384
103384
103384
103384
103384
103384
103384
103384
103384
103384
103384
103384
103384
103384
103383
103383
103383
103383
103383
103383
103383
103383
103383
103383
103383
103383
103383
103383
103383
103383
103383
103383
103384
103383
103383
103383
103383
103383
103383
103383
103383
103383
103383
103383
103383
103383
103383
103383
103383
103383
103383
103383
103383
103383
103382
103382
103382
103382
103382
103382
103382
103382
103382
103382
103382
103382
103382
103382
103382
103382
103382
103382
103382
103382
103381
103381
103381
103381
103382
103382
103382
103382
103382
103382
103382
103382
103382
103382
103382
103381
103381
103381
103382
103382
103381
103381
103381
103381
103381
103381
103381
103381
103381
103381
103381
103381
103381
103381
103381
103381
103381
103381
103381
103381
103380
103380
103380
103380
103380
103380
103380
103380
103380
103380
103380
103380
103380
103380
103380
103380
103380
103380
103381
103380
103380
103380
103380
103380
103380
103380
103380
103380
103380
103380
103380
103380
103380
103380
103380
103380
103380
103380
103380
103380
103379
103379
103379
103379
103379
103379
103379
103379
103379
103379
103379
103379
103379
103379
103379
103379
103379
103379
103380
103379
103379
103379
103379
103379
103379
103379
103379
103379
103379
103379
103379
103379
103379
103379
103379
103379
103379
103379
103379
103379
103378
103378
103378
103378
103378
103378
103378
103378
103378
103378
103378
103378
103378
103378
103378
103378
103378
103378
103379
103378
103378
103377
103377
103377
103377
103378
103378
103378
103378
103378
103378
103378
103378
103378
103377
103377
103377
103378
103378
103378
103377
103377
103377
103377
103377
103377
103377
103377
103377
103377
103377
103377
103377
103377
103377
103377
103377
103377
103378
103377
103376
103376
103376
103376
103376
103376
103376
103376
103377
103377
103377
103376
103376
103376
103376
103376
103376
103377
103378
103377
103376
103376
103376
103376
103376
103376
103376
103376
103376
103376
103376
103376
103376
103376
103376
103376
103376
103376
103377
103377
103375
103375
103375
103375
103375
103375
103375
103375
103375
103375
103375
103375
103375
103375
103375
103375
103375
103376
103377
103376
103375
103374
103374
103374
103374
103374
103375
103375
103375
103375
103375
103375
103375
103375
103375
103375
103375
103375
103376
103376
103374
103373
103373
103373
103374
103374
103374
103374
103374
103374
103374
103374
103374
103374
103374
103374
103374
103375
103376
103375
103374
103372
103372
103373
103373
103373
103373
103374
103374
103374
103374
103374
103374
103374