/*--------------------------------*- C++ -*----------------------------------*\
| =========                 |                                                 |
| \\      /  F ield         | OpenFOAM: The Open Source CFD Toolbox           |
|  \\    /   O peration     | Version:  2.1.0                                 |
|   \\  /    A nd           | Web:      www.OpenFOAM.org                      |
|    \\/     M anipulation  |                                                 |
\*---------------------------------------------------------------------------*/
FoamFile
{
    version     2.0;
    format      ascii;
    class       surfaceScalarField;
    location    "0.16";
    object      phi;
}
// * * * * * * * * * * * * * * * * * * * * * * * * * * * * * * * * * * * * * //

dimensions      [0 3 -1 0 0 0 0];

internalField   nonuniform List<scalar> 
12460
(
-2.3957e-05
3.03548e-09
-2.39368e-05
-2.01447e-08
-2.39017e-05
-3.51232e-08
-2.3857e-05
-4.47397e-08
-2.38054e-05
-5.15421e-08
-2.37487e-05
-5.67864e-08
-2.36877e-05
-6.10042e-08
-2.3623e-05
-6.46086e-08
-2.35552e-05
-6.78018e-08
-2.34845e-05
-7.07584e-08
-2.34109e-05
-7.35539e-08
-2.33347e-05
-7.62537e-08
-2.32558e-05
-7.88807e-08
-2.31743e-05
-8.1463e-08
-2.30903e-05
-8.40053e-08
-2.30038e-05
-8.65241e-08
-2.29148e-05
-8.90136e-08
-2.28233e-05
-9.14924e-08
-2.27293e-05
-9.39579e-08
-2.26329e-05
-9.6391e-08
-2.25341e-05
-9.88329e-08
-2.24328e-05
-1.01331e-07
-2.23289e-05
-1.03837e-07
-2.22226e-05
-1.06361e-07
-2.21137e-05
-1.08907e-07
-2.20022e-05
-1.11502e-07
-2.1888e-05
-1.14137e-07
-2.17712e-05
-1.16833e-07
-2.16516e-05
-1.1958e-07
-2.15292e-05
-1.22393e-07
-2.1404e-05
-1.25268e-07
-2.12757e-05
-1.28227e-07
-2.11445e-05
-1.31263e-07
-2.10101e-05
-1.34387e-07
-2.08725e-05
-1.37606e-07
-2.07315e-05
-1.40939e-07
-2.05872e-05
-1.44388e-07
-2.04392e-05
-1.47971e-07
-2.02875e-05
-1.51695e-07
-2.01319e-05
-1.55578e-07
-1.99723e-05
-1.59626e-07
-1.98084e-05
-1.63847e-07
-1.96402e-05
-1.68243e-07
-1.94674e-05
-1.72818e-07
-1.92898e-05
-1.77569e-07
-1.91073e-05
-1.82498e-07
-1.89197e-05
-1.87598e-07
-1.87268e-05
-1.92871e-07
-1.85286e-05
-1.98209e-07
-1.8325e-05
-2.03632e-07
-1.81156e-05
-2.09414e-07
-1.79e-05
-2.15564e-07
-1.76782e-05
-2.2181e-07
-1.74503e-05
-2.27883e-07
-1.72166e-05
-2.33711e-07
-1.69772e-05
-2.3944e-07
-1.6732e-05
-2.45197e-07
-1.6481e-05
-2.51032e-07
-1.6224e-05
-2.56932e-07
-1.59611e-05
-2.62915e-07
-1.56921e-05
-2.69011e-07
-1.54169e-05
-2.75215e-07
-1.51353e-05
-2.81552e-07
-1.48473e-05
-2.88043e-07
-1.45526e-05
-2.94726e-07
-1.42509e-05
-3.01613e-07
-1.39422e-05
-3.08703e-07
-1.36263e-05
-3.15975e-07
-1.33028e-05
-3.23422e-07
-1.29718e-05
-3.31018e-07
-1.26331e-05
-3.38767e-07
-1.22863e-05
-3.46795e-07
-1.19311e-05
-3.55178e-07
-1.15672e-05
-3.63896e-07
-1.11942e-05
-3.73e-07
-1.08116e-05
-3.82608e-07
-1.04187e-05
-3.92904e-07
-1.00145e-05
-4.04161e-07
-9.59777e-06
-4.1675e-07
-9.1666e-06
-4.31169e-07
-8.71856e-06
-4.48043e-07
-8.25043e-06
-4.68133e-07
-7.75819e-06
-4.92236e-07
-7.23717e-06
-5.21024e-07
-6.68201e-06
-5.55161e-07
-6.0869e-06
-5.95113e-07
-5.44609e-06
-6.40809e-07
-4.75488e-06
-6.9122e-07
-4.01166e-06
-7.43224e-07
-3.2221e-06
-7.89569e-07
-2.40653e-06
-8.15573e-07
-1.61526e-06
-7.91283e-07
-9.44145e-07
-6.71122e-07
-5.12247e-07
-4.31905e-07
-3.80619e-07
-1.31632e-07
-6.18939e-07
2.38326e-07
-1.49316e-06
8.74222e-07
-3.69718e-06
2.2038e-06
-8.96285e-06
5.26474e-06
1.45844e-05
-2.35498e-05
-2.92379e-05
-8.76824e-09
-2.91988e-05
-5.92619e-08
-2.91468e-05
-8.70922e-08
-2.90879e-05
-1.03613e-07
-2.90245e-05
-1.14982e-07
-2.89577e-05
-1.23586e-07
-2.88882e-05
-1.30497e-07
-2.88164e-05
-1.3642e-07
-2.87424e-05
-1.41732e-07
-2.86665e-05
-1.46696e-07
-2.85886e-05
-1.51455e-07
-2.85088e-05
-1.56095e-07
-2.8427e-05
-1.60659e-07
-2.83433e-05
-1.65182e-07
-2.82576e-05
-1.69671e-07
-2.817e-05
-1.74144e-07
-2.80804e-05
-1.78588e-07
-2.79889e-05
-1.83013e-07
-2.78954e-05
-1.87446e-07
-2.78e-05
-1.91776e-07
-2.77028e-05
-1.96101e-07
-2.76035e-05
-2.00536e-07
-2.75024e-05
-2.0497e-07
-2.73994e-05
-2.09416e-07
-2.72944e-05
-2.13893e-07
-2.71874e-05
-2.18438e-07
-2.70785e-05
-2.23046e-07
-2.69676e-05
-2.27743e-07
-2.68547e-05
-2.32512e-07
-2.67397e-05
-2.37378e-07
-2.66226e-05
-2.42337e-07
-2.65034e-05
-2.47422e-07
-2.63821e-05
-2.52632e-07
-2.62585e-05
-2.5798e-07
-2.61326e-05
-2.63477e-07
-2.60044e-05
-2.69147e-07
-2.58738e-05
-2.74992e-07
-2.57407e-05
-2.81035e-07
-2.56051e-05
-2.87283e-07
-2.5467e-05
-2.93758e-07
-2.53261e-05
-3.00474e-07
-2.51825e-05
-3.07457e-07
-2.5036e-05
-3.14717e-07
-2.48866e-05
-3.22274e-07
-2.4734e-05
-3.3013e-07
-2.45782e-05
-3.38296e-07
-2.4419e-05
-3.46787e-07
-2.42563e-05
-3.55601e-07
-2.40899e-05
-3.6463e-07
-2.39198e-05
-3.73707e-07
-2.37464e-05
-3.82798e-07
-2.35701e-05
-3.91884e-07
-2.3391e-05
-4.00932e-07
-2.32089e-05
-4.09951e-07
-2.30238e-05
-4.18853e-07
-2.28355e-05
-4.27657e-07
-2.26443e-05
-4.36459e-07
-2.245e-05
-4.45317e-07
-2.22527e-05
-4.54239e-07
-2.20524e-05
-4.63221e-07
-2.18491e-05
-4.72256e-07
-2.1643e-05
-4.81331e-07
-2.14341e-05
-4.90464e-07
-2.12224e-05
-4.99702e-07
-2.10081e-05
-5.09081e-07
-2.07911e-05
-5.18602e-07
-2.05715e-05
-5.28276e-07
-2.03494e-05
-5.38086e-07
-2.01248e-05
-5.4804e-07
-1.98977e-05
-5.5811e-07
-1.96682e-05
-5.68308e-07
-1.94361e-05
-5.78885e-07
-1.92012e-05
-5.90043e-07
-1.89633e-05
-6.01778e-07
-1.87221e-05
-6.14202e-07
-1.84772e-05
-6.27541e-07
-1.8228e-05
-6.42126e-07
-1.79737e-05
-6.58415e-07
-1.77135e-05
-6.77008e-07
-1.7446e-05
-6.98672e-07
-1.71697e-05
-7.24333e-07
-1.68827e-05
-7.55103e-07
-1.65828e-05
-7.92227e-07
-1.6267e-05
-8.36789e-07
-1.59324e-05
-8.8978e-07
-1.55757e-05
-9.51819e-07
-1.5194e-05
-1.02258e-06
-1.47851e-05
-1.10017e-06
-1.43489e-05
-1.17949e-06
-1.38892e-05
-1.2493e-06
-1.34164e-05
-1.28848e-06
-1.29482e-05
-1.25958e-06
-1.25138e-05
-1.10572e-06
-1.21869e-05
-7.59048e-07
-1.21524e-05
-1.66496e-07
-1.25901e-05
6.75508e-07
-1.37994e-05
2.08278e-06
-1.62774e-05
4.68061e-06
-2.10162e-05
1.00016e-05
2.49538e-05
-3.1389e-05
-3.22524e-05
-2.8932e-08
-3.22142e-05
-9.74708e-08
-3.21662e-05
-1.35118e-07
-3.21123e-05
-1.57514e-07
-3.20548e-05
-1.7249e-07
-3.19948e-05
-1.83538e-07
-3.1933e-05
-1.92269e-07
-3.18697e-05
-1.99719e-07
-3.18051e-05
-2.06381e-07
-3.17392e-05
-2.12633e-07
-3.1672e-05
-2.18641e-07
-3.16035e-05
-2.24545e-07
-3.15338e-05
-2.30371e-07
-3.14628e-05
-2.36193e-07
-3.13905e-05
-2.41999e-07
-3.13168e-05
-2.47832e-07
-3.12417e-05
-2.53672e-07
-3.11652e-05
-2.59531e-07
-3.10872e-05
-2.65449e-07
-3.10076e-05
-2.71317e-07
-3.09266e-05
-2.7709e-07
-3.08444e-05
-2.82835e-07
-3.07608e-05
-2.88516e-07
-3.06761e-05
-2.9417e-07
-3.05901e-05
-2.99842e-07
-3.0503e-05
-3.05579e-07
-3.04146e-05
-3.11382e-07
-3.03251e-05
-3.17267e-07
-3.02344e-05
-3.23215e-07
-3.01425e-05
-3.29246e-07
-3.00495e-05
-3.35357e-07
-2.99553e-05
-3.41582e-07
-2.98601e-05
-3.47927e-07
-2.97636e-05
-3.5439e-07
-2.96661e-05
-3.6099e-07
-2.95675e-05
-3.67748e-07
-2.94679e-05
-3.74658e-07
-2.93672e-05
-3.81744e-07
-2.92654e-05
-3.89006e-07
-2.91627e-05
-3.9646e-07
-2.90591e-05
-4.04111e-07
-2.89546e-05
-4.11983e-07
-2.88492e-05
-4.20078e-07
-2.87431e-05
-4.28414e-07
-2.86362e-05
-4.36989e-07
-2.85287e-05
-4.45802e-07
-2.84206e-05
-4.54857e-07
-2.83121e-05
-4.64104e-07
-2.82033e-05
-4.73483e-07
-2.80941e-05
-4.82908e-07
-2.79847e-05
-4.92204e-07
-2.78753e-05
-5.01225e-07
-2.77662e-05
-5.10017e-07
-2.76574e-05
-5.18808e-07
-2.75486e-05
-5.27593e-07
-2.74401e-05
-5.36246e-07
-2.73318e-05
-5.44757e-07
-2.7224e-05
-5.53127e-07
-2.71168e-05
-5.61357e-07
-2.70106e-05
-5.69422e-07
-2.69056e-05
-5.77266e-07
-2.68021e-05
-5.84839e-07
-2.67005e-05
-5.92117e-07
-2.6601e-05
-5.99148e-07
-2.65042e-05
-6.05947e-07
-2.64103e-05
-6.12461e-07
-2.63199e-05
-6.18668e-07
-2.62335e-05
-6.24531e-07
-2.61515e-05
-6.3003e-07
-2.60745e-05
-6.3512e-07
-2.60031e-05
-6.3972e-07
-2.59378e-05
-6.44181e-07
-2.58789e-05
-6.4887e-07
-2.5827e-05
-6.53765e-07
-2.57822e-05
-6.59008e-07
-2.57448e-05
-6.64918e-07
-2.5715e-05
-6.71966e-07
-2.56926e-05
-6.80795e-07
-2.56774e-05
-6.92232e-07
-2.56688e-05
-7.07313e-07
-2.56659e-05
-7.27256e-07
-2.56676e-05
-7.53464e-07
-2.56724e-05
-7.87522e-07
-2.56782e-05
-8.30986e-07
-2.5683e-05
-8.8515e-07
-2.56842e-05
-9.50742e-07
-2.56797e-05
-1.02722e-06
-2.56681e-05
-1.11198e-06
-2.56492e-05
-1.19864e-06
-2.56251e-05
-1.27367e-06
-2.5601e-05
-1.31299e-06
-2.55841e-05
-1.27701e-06
-2.55854e-05
-1.10505e-06
-2.5634e-05
-7.11247e-07
-2.57833e-05
-1.81151e-08
-2.6201e-05
1.09211e-06
-2.70777e-05
2.958e-06
-2.87898e-05
6.39078e-06
-3.2031e-05
1.32404e-05
2.92209e-05
-3.6302e-05
-3.50005e-05
-5.06788e-08
-3.49711e-05
-1.26846e-07
-3.49353e-05
-1.70878e-07
-3.48953e-05
-1.97591e-07
-3.48526e-05
-2.1518e-07
-3.48084e-05
-2.27752e-07
-3.47632e-05
-2.37438e-07
-3.47174e-05
-2.45548e-07
-3.46711e-05
-2.52697e-07
-3.46243e-05
-2.59355e-07
-3.45773e-05
-2.65716e-07
-3.45298e-05
-2.71959e-07
-3.44821e-05
-2.78091e-07
-3.44341e-05
-2.84222e-07
-3.43858e-05
-2.90315e-07
-3.43372e-05
-2.96427e-07
-3.42883e-05
-3.02541e-07
-3.42392e-05
-3.08647e-07
-3.41899e-05
-3.14726e-07
-3.41404e-05
-3.20801e-07
-3.40907e-05
-3.26831e-07
-3.40408e-05
-3.32764e-07
-3.39907e-05
-3.38592e-07
-3.39405e-05
-3.4433e-07
-3.38903e-05
-3.50042e-07
-3.38401e-05
-3.55784e-07
-3.37899e-05
-3.6157e-07
-3.37398e-05
-3.67389e-07
-3.36898e-05
-3.73223e-07
-3.364e-05
-3.79075e-07
-3.35904e-05
-3.8495e-07
-3.35411e-05
-3.90855e-07
-3.34922e-05
-3.96804e-07
-3.34438e-05
-4.02798e-07
-3.3396e-05
-4.0884e-07
-3.33488e-05
-4.14939e-07
-3.33024e-05
-4.2109e-07
-3.32568e-05
-4.27301e-07
-3.32122e-05
-4.33569e-07
-3.31688e-05
-4.39896e-07
-3.31266e-05
-4.46271e-07
-3.30859e-05
-4.52695e-07
-3.30469e-05
-4.59152e-07
-3.30096e-05
-4.65638e-07
-3.29745e-05
-4.72134e-07
-3.29417e-05
-4.78625e-07
-3.29114e-05
-4.85075e-07
-3.28841e-05
-4.91414e-07
-3.286e-05
-4.9759e-07
-3.28392e-05
-5.03714e-07
-3.28216e-05
-5.09862e-07
-3.28069e-05
-5.15859e-07
-3.27954e-05
-5.21539e-07
-3.27872e-05
-5.26991e-07
-3.27826e-05
-5.32252e-07
-3.27816e-05
-5.37199e-07
-3.27846e-05
-5.41745e-07
-3.27919e-05
-5.45859e-07
-3.28038e-05
-5.49491e-07
-3.28206e-05
-5.52617e-07
-3.28426e-05
-5.55183e-07
-3.28704e-05
-5.57104e-07
-3.29042e-05
-5.58331e-07
-3.29444e-05
-5.58925e-07
-3.29914e-05
-5.58946e-07
-3.30455e-05
-5.58342e-07
-3.31071e-05
-5.57083e-07
-3.31765e-05
-5.55147e-07
-3.3254e-05
-5.52534e-07
-3.33398e-05
-5.49304e-07
-3.34344e-05
-5.45199e-07
-3.35378e-05
-5.40796e-07
-3.36498e-05
-5.36828e-07
-3.37703e-05
-5.33279e-07
-3.3899e-05
-5.30403e-07
-3.40352e-05
-5.28675e-07
-3.41785e-05
-5.28741e-07
-3.43279e-05
-5.31418e-07
-3.44825e-05
-5.37737e-07
-3.46409e-05
-5.4893e-07
-3.48019e-05
-5.66409e-07
-3.49638e-05
-5.91721e-07
-3.51249e-05
-6.26541e-07
-3.52836e-05
-6.72446e-07
-3.54383e-05
-7.30644e-07
-3.55877e-05
-8.01616e-07
-3.57309e-05
-8.84407e-07
-3.58677e-05
-9.7557e-07
-3.5999e-05
-1.06776e-06
-3.61264e-05
-1.14692e-06
-3.62513e-05
-1.18869e-06
-3.63746e-05
-1.15458e-06
-3.64947e-05
-9.85844e-07
-3.66101e-05
-5.96987e-07
-3.67263e-05
9.68882e-08
-3.69424e-05
1.30674e-06
-3.73929e-05
3.40672e-06
-3.82393e-05
7.23512e-06
-3.96563e-05
1.46547e-05
2.91408e-05
-3.95801e-05
-3.78262e-05
-6.6708e-08
-3.78107e-05
-1.42292e-07
-3.7794e-05
-1.87593e-07
-3.77759e-05
-2.15707e-07
-3.7757e-05
-2.34018e-07
-3.77382e-05
-2.46623e-07
-3.77196e-05
-2.56035e-07
-3.77015e-05
-2.63614e-07
-3.76841e-05
-2.70135e-07
-3.76674e-05
-2.7605e-07
-3.76515e-05
-2.81635e-07
-3.76364e-05
-2.87024e-07
-3.76222e-05
-2.92267e-07
-3.7609e-05
-2.97432e-07
-3.75968e-05
-3.02517e-07
-3.75857e-05
-3.07525e-07
-3.75758e-05
-3.12463e-07
-3.75671e-05
-3.17308e-07
-3.75598e-05
-3.22013e-07
-3.7554e-05
-3.26609e-07
-3.75496e-05
-3.31219e-07
-3.75466e-05
-3.35809e-07
-3.75449e-05
-3.40299e-07
-3.75446e-05
-3.44626e-07
-3.75458e-05
-3.48834e-07
-3.75486e-05
-3.53023e-07
-3.75529e-05
-3.57211e-07
-3.75589e-05
-3.61359e-07
-3.75667e-05
-3.65438e-07
-3.75764e-05
-3.6944e-07
-3.75879e-05
-3.73373e-07
-3.76016e-05
-3.77239e-07
-3.76173e-05
-3.81039e-07
-3.76353e-05
-3.84788e-07
-3.76557e-05
-3.88483e-07
-3.76785e-05
-3.92121e-07
-3.77039e-05
-3.95697e-07
-3.7732e-05
-3.9921e-07
-3.77629e-05
-4.02659e-07
-3.77968e-05
-4.06035e-07
-3.78337e-05
-4.09328e-07
-3.78739e-05
-4.12538e-07
-3.79174e-05
-4.15653e-07
-3.79643e-05
-4.18664e-07
-3.80149e-05
-4.2156e-07
-3.80692e-05
-4.24337e-07
-3.81273e-05
-4.26963e-07
-3.81893e-05
-4.2939e-07
-3.82553e-05
-4.31612e-07
-3.83253e-05
-4.33702e-07
-3.83995e-05
-4.35668e-07
-3.84779e-05
-4.37457e-07
-3.85606e-05
-4.38835e-07
-3.86478e-05
-4.39846e-07
-3.87394e-05
-4.40643e-07
-3.88355e-05
-4.411e-07
-3.89361e-05
-4.41126e-07
-3.90413e-05
-4.40706e-07
-3.91509e-05
-4.39824e-07
-3.92651e-05
-4.38464e-07
-3.93837e-05
-4.3659e-07
-3.95067e-05
-4.34118e-07
-3.9634e-05
-4.30969e-07
-3.97657e-05
-4.27247e-07
-3.99016e-05
-4.23109e-07
-4.00414e-05
-4.18489e-07
-4.01852e-05
-4.13343e-07
-4.03327e-05
-4.07646e-07
-4.04838e-05
-4.01396e-07
-4.06385e-05
-3.94667e-07
-4.07966e-05
-3.87122e-07
-4.09585e-05
-3.78912e-07
-4.11245e-05
-3.70883e-07
-4.12945e-05
-3.63352e-07
-4.14682e-05
-3.56727e-07
-4.16454e-05
-3.51551e-07
-4.18256e-05
-3.48531e-07
-4.20086e-05
-3.48556e-07
-4.21937e-05
-3.5273e-07
-4.23804e-05
-3.62347e-07
-4.25681e-05
-3.7889e-07
-4.27561e-05
-4.0395e-07
-4.29436e-05
-4.39225e-07
-4.313e-05
-4.86324e-07
-4.33146e-05
-5.46375e-07
-4.34968e-05
-6.19711e-07
-4.36763e-05
-7.05355e-07
-4.38526e-05
-7.99783e-07
-4.40255e-05
-8.95379e-07
-4.41947e-05
-9.78379e-07
-4.4358e-05
-1.02618e-06
-4.45096e-05
-1.00383e-06
-4.46368e-05
-8.5962e-07
-4.47187e-05
-5.16225e-07
-4.47519e-05
1.28726e-07
-4.47626e-05
1.31595e-06
-4.47725e-05
3.41489e-06
-4.47795e-05
7.24006e-06
-4.4472e-05
1.43447e-05
2.63157e-05
-4.16502e-05
-4.08762e-05
-7.17245e-08
-4.088e-05
-1.38479e-07
-4.08885e-05
-1.79112e-07
-4.08997e-05
-2.04471e-07
-4.0913e-05
-2.20683e-07
-4.09283e-05
-2.31323e-07
-4.09455e-05
-2.38867e-07
-4.09646e-05
-2.44553e-07
-4.09855e-05
-2.49201e-07
-4.10083e-05
-2.53219e-07
-4.10331e-05
-2.56901e-07
-4.10598e-05
-2.60344e-07
-4.10884e-05
-2.63634e-07
-4.1119e-05
-2.66789e-07
-4.11517e-05
-2.69852e-07
-4.11864e-05
-2.72783e-07
-4.12233e-05
-2.7559e-07
-4.12624e-05
-2.78272e-07
-4.13036e-05
-2.80795e-07
-4.1347e-05
-2.83178e-07
-4.13927e-05
-2.85492e-07
-4.14408e-05
-2.877e-07
-4.14913e-05
-2.8981e-07
-4.15443e-05
-2.91668e-07
-4.15998e-05
-2.93272e-07
-4.1658e-05
-2.94837e-07
-4.17189e-05
-2.96379e-07
-4.17824e-05
-2.97836e-07
-4.18486e-05
-2.99192e-07
-4.19176e-05
-3.00441e-07
-4.19894e-05
-3.01594e-07
-4.2064e-05
-3.0267e-07
-4.21413e-05
-3.03676e-07
-4.22215e-05
-3.04627e-07
-4.23045e-05
-3.05534e-07
-4.23902e-05
-3.06408e-07
-4.24786e-05
-3.07245e-07
-4.25698e-05
-3.08053e-07
-4.26636e-05
-3.08835e-07
-4.276e-05
-3.09594e-07
-4.2859e-05
-3.1033e-07
-4.29605e-05
-3.11044e-07
-4.30644e-05
-3.11737e-07
-4.31707e-05
-3.12402e-07
-4.32792e-05
-3.1304e-07
-4.33899e-05
-3.13642e-07
-4.35027e-05
-3.14183e-07
-4.36175e-05
-3.14638e-07
-4.37341e-05
-3.15003e-07
-4.38525e-05
-3.15313e-07
-4.39726e-05
-3.15548e-07
-4.40943e-05
-3.1569e-07
-4.42176e-05
-3.15548e-07
-4.43425e-05
-3.14961e-07
-4.44692e-05
-3.13947e-07
-4.45978e-05
-3.1253e-07
-4.47282e-05
-3.10734e-07
-4.48603e-05
-3.08568e-07
-4.49941e-05
-3.06006e-07
-4.51296e-05
-3.03024e-07
-4.52666e-05
-2.99579e-07
-4.54052e-05
-2.95568e-07
-4.55453e-05
-2.90808e-07
-4.56872e-05
-2.85391e-07
-4.58307e-05
-2.79651e-07
-4.59757e-05
-2.73419e-07
-4.61225e-05
-2.66603e-07
-4.6271e-05
-2.5916e-07
-4.64213e-05
-2.51076e-07
-4.65737e-05
-2.42323e-07
-4.67282e-05
-2.32685e-07
-4.68849e-05
-2.2226e-07
-4.70435e-05
-2.12291e-07
-4.72041e-05
-2.02826e-07
-4.73666e-05
-1.94236e-07
-4.75312e-05
-1.87098e-07
-4.76976e-05
-1.8216e-07
-4.78659e-05
-1.80356e-07
-4.8036e-05
-1.82839e-07
-4.82075e-05
-1.90969e-07
-4.83803e-05
-2.06284e-07
-4.85541e-05
-2.30343e-07
-4.87287e-05
-2.64777e-07
-4.8904e-05
-3.11307e-07
-4.90797e-05
-3.70981e-07
-4.92557e-05
-4.44051e-07
-4.94318e-05
-5.29723e-07
-4.96074e-05
-6.2466e-07
-4.97816e-05
-7.21659e-07
-4.99524e-05
-8.08191e-07
-5.01146e-05
-8.64631e-07
-5.02584e-05
-8.60882e-07
-5.03636e-05
-7.55226e-07
-5.0398e-05
-4.82856e-07
-5.03364e-05
6.59486e-08
-5.01502e-05
1.12851e-06
-4.97614e-05
3.0246e-06
-4.9009e-05
6.48592e-06
-4.73062e-05
1.26398e-05
2.18384e-05
-4.28312e-05
-4.40627e-05
-6.36568e-08
-4.40889e-05
-1.12314e-07
-4.41249e-05
-1.43112e-07
-4.4167e-05
-1.62306e-07
-4.42136e-05
-1.74119e-07
-4.42636e-05
-1.81286e-07
-4.43166e-05
-1.85878e-07
-4.43723e-05
-1.88892e-07
-4.44304e-05
-1.91038e-07
-4.4491e-05
-1.92673e-07
-4.45538e-05
-1.94046e-07
-4.4619e-05
-1.95226e-07
-4.46863e-05
-1.96314e-07
-4.47558e-05
-1.97296e-07
-4.48274e-05
-1.9824e-07
-4.49011e-05
-1.99072e-07
-4.49769e-05
-1.99835e-07
-4.50546e-05
-2.00496e-07
-4.51344e-05
-2.01069e-07
-4.5216e-05
-2.01546e-07
-4.52995e-05
-2.01987e-07
-4.53848e-05
-2.02345e-07
-4.5472e-05
-2.02672e-07
-4.55608e-05
-2.02813e-07
-4.56515e-05
-2.02645e-07
-4.57441e-05
-2.02221e-07
-4.58388e-05
-2.01666e-07
-4.59356e-05
-2.01024e-07
-4.60345e-05
-2.00332e-07
-4.61353e-05
-1.99592e-07
-4.62381e-05
-1.98822e-07
-4.63427e-05
-1.98039e-07
-4.64491e-05
-1.97271e-07
-4.65572e-05
-1.96546e-07
-4.66669e-05
-1.95871e-07
-4.6778e-05
-1.95258e-07
-4.68905e-05
-1.94722e-07
-4.70043e-05
-1.94269e-07
-4.71193e-05
-1.93895e-07
-4.72353e-05
-1.93607e-07
-4.73522e-05
-1.93404e-07
-4.74699e-05
-1.93284e-07
-4.75884e-05
-1.9324e-07
-4.77076e-05
-1.93261e-07
-4.78273e-05
-1.93342e-07
-4.79475e-05
-1.93465e-07
-4.8068e-05
-1.93602e-07
-4.81889e-05
-1.9373e-07
-4.83101e-05
-1.93831e-07
-4.84315e-05
-1.93919e-07
-4.85531e-05
-1.93952e-07
-4.8675e-05
-1.93814e-07
-4.87971e-05
-1.93455e-07
-4.89191e-05
-1.92891e-07
-4.90411e-05
-1.92008e-07
-4.91629e-05
-1.90709e-07
-4.92846e-05
-1.89006e-07
-4.94063e-05
-1.86906e-07
-4.95279e-05
-1.84378e-07
-4.96496e-05
-1.81384e-07
-4.97713e-05
-1.77872e-07
-4.98931e-05
-1.73759e-07
-5.00152e-05
-1.68729e-07
-5.01379e-05
-1.62718e-07
-5.0261e-05
-1.56535e-07
-5.03847e-05
-1.49779e-07
-5.0509e-05
-1.42312e-07
-5.0634e-05
-1.34095e-07
-5.076e-05
-1.25122e-07
-5.0887e-05
-1.15362e-07
-5.10149e-05
-1.04793e-07
-5.11445e-05
-9.26972e-08
-5.12751e-05
-8.17367e-08
-5.14067e-05
-7.12833e-08
-5.15395e-05
-6.14811e-08
-5.16738e-05
-5.28934e-08
-5.18098e-05
-4.62798e-08
-5.19476e-05
-4.25842e-08
-5.20876e-05
-4.2969e-08
-5.22299e-05
-4.88236e-08
-5.23746e-05
-6.17224e-08
-5.25219e-05
-8.31963e-08
-5.26722e-05
-1.14665e-07
-5.28255e-05
-1.58164e-07
-5.2982e-05
-2.14718e-07
-5.31419e-05
-2.84439e-07
-5.33049e-05
-3.67069e-07
-5.34702e-05
-4.59633e-07
-5.36364e-05
-5.55945e-07
-5.37994e-05
-6.45599e-07
-5.39521e-05
-7.1246e-07
-5.40807e-05
-7.32844e-07
-5.41629e-05
-6.73725e-07
-5.4155e-05
-4.91527e-07
-5.40123e-05
-7.76388e-08
-5.36485e-05
7.63793e-07
-5.2921e-05
2.29601e-06
-5.15334e-05
5.09705e-06
-4.87992e-05
9.90419e-06
1.64294e-05
-4.33917e-05
-4.70622e-05
-4.40338e-08
-4.7104e-05
-7.05123e-08
-4.71581e-05
-8.90117e-08
-4.722e-05
-1.00372e-07
-4.72873e-05
-1.06832e-07
-4.73584e-05
-1.10212e-07
-4.74324e-05
-1.1186e-07
-4.75088e-05
-1.12469e-07
-4.75873e-05
-1.12521e-07
-4.76677e-05
-1.12278e-07
-4.77499e-05
-1.11902e-07
-4.78337e-05
-1.11428e-07
-4.7919e-05
-1.10942e-07
-4.80059e-05
-1.10415e-07
-4.80943e-05
-1.09909e-07
-4.8184e-05
-1.09331e-07
-4.82751e-05
-1.08757e-07
-4.83674e-05
-1.08122e-07
-4.8461e-05
-1.07467e-07
-4.85558e-05
-1.06763e-07
-4.86518e-05
-1.06069e-07
-4.87488e-05
-1.05312e-07
-4.8847e-05
-1.04469e-07
-4.89463e-05
-1.03493e-07
-4.90465e-05
-1.02494e-07
-4.91473e-05
-1.01404e-07
-4.92487e-05
-1.00258e-07
-4.93506e-05
-9.91071e-08
-4.94529e-05
-9.80051e-08
-4.95556e-05
-9.69347e-08
-4.96585e-05
-9.59172e-08
-4.97616e-05
-9.49642e-08
-4.98647e-05
-9.41118e-08
-4.99679e-05
-9.33917e-08
-5.00709e-05
-9.27982e-08
-5.01739e-05
-9.23292e-08
-5.02766e-05
-9.20114e-08
-5.0379e-05
-9.18408e-08
-5.04811e-05
-9.17991e-08
-5.05828e-05
-9.18852e-08
-5.06841e-05
-9.20945e-08
-5.0785e-05
-9.24172e-08
-5.08854e-05
-9.28374e-08
-5.09853e-05
-9.33384e-08
-5.10848e-05
-9.39042e-08
-5.11837e-05
-9.45088e-08
-5.12822e-05
-9.5126e-08
-5.13802e-05
-9.57253e-08
-5.14778e-05
-9.62831e-08
-5.15749e-05
-9.67905e-08
-5.16716e-05
-9.72032e-08
-5.17681e-05
-9.7399e-08
-5.18641e-05
-9.73812e-08
-5.19598e-05
-9.72428e-08
-5.20549e-05
-9.68588e-08
-5.21496e-05
-9.60466e-08
-5.22438e-05
-9.47535e-08
-5.23378e-05
-9.2959e-08
-5.24315e-05
-9.06292e-08
-5.25252e-05
-8.77195e-08
-5.26189e-05
-8.41775e-08
-5.27127e-05
-7.99491e-08
-5.28067e-05
-7.47162e-08
-5.29018e-05
-6.77088e-08
-5.29973e-05
-6.0971e-08
-5.30936e-05
-5.35035e-08
-5.31908e-05
-4.51136e-08
-5.32892e-05
-3.57698e-08
-5.33888e-05
-2.55145e-08
-5.34899e-05
-1.43089e-08
-5.35916e-05
-3.09905e-09
-5.36967e-05
1.23967e-08
-5.38037e-05
2.52029e-08
-5.39126e-05
3.76005e-08
-5.40238e-05
4.9669e-08
-5.41375e-05
6.07938e-08
-5.4254e-05
7.0197e-08
-5.43736e-05
7.69359e-08
-5.44965e-05
7.98792e-08
-5.46231e-05
7.76872e-08
-5.47538e-05
6.88678e-08
-5.48889e-05
5.18412e-08
-5.50287e-05
2.50391e-08
-5.51738e-05
-1.3159e-08
-5.53247e-05
-6.4033e-08
-5.54809e-05
-1.28336e-07
-5.56419e-05
-2.0631e-07
-5.58063e-05
-2.9543e-07
-5.59717e-05
-3.90819e-07
-5.61329e-05
-4.84617e-07
-5.6281e-05
-5.64683e-07
-5.63998e-05
-6.14402e-07
-5.64635e-05
-6.10514e-07
-5.64291e-05
-5.26381e-07
-5.62246e-05
-2.82616e-07
-5.57247e-05
2.63288e-07
-5.47363e-05
1.30692e-06
-5.28659e-05
3.22588e-06
-4.94242e-05
6.46172e-06
1.05494e-05
-4.35449e-05
-4.95222e-05
-1.38745e-08
-4.95722e-05
-2.04656e-08
-4.96344e-05
-2.6895e-08
-4.97042e-05
-3.05551e-08
-4.97789e-05
-3.21616e-08
-4.98565e-05
-3.25602e-08
-4.99361e-05
-3.22986e-08
-5.00169e-05
-3.16725e-08
-5.00985e-05
-3.08962e-08
-5.01807e-05
-3.00932e-08
-5.02632e-05
-2.93243e-08
-5.03461e-05
-2.85813e-08
-5.04291e-05
-2.79081e-08
-5.05123e-05
-2.72808e-08
-5.05955e-05
-2.67095e-08
-5.06786e-05
-2.61439e-08
-5.07618e-05
-2.56245e-08
-5.08448e-05
-2.5103e-08
-5.09277e-05
-2.46039e-08
-5.10103e-05
-2.41114e-08
-5.10927e-05
-2.36559e-08
-5.11749e-05
-2.3179e-08
-5.12567e-05
-2.26416e-08
-5.13381e-05
-2.20606e-08
-5.1419e-05
-2.16017e-08
-5.14992e-05
-2.1245e-08
-5.15785e-05
-2.09602e-08
-5.16568e-05
-2.0738e-08
-5.17343e-05
-2.05947e-08
-5.18107e-05
-2.04823e-08
-5.18862e-05
-2.03939e-08
-5.19608e-05
-2.03562e-08
-5.20345e-05
-2.04048e-08
-5.21074e-05
-2.05619e-08
-5.21793e-05
-2.08219e-08
-5.22505e-05
-2.11705e-08
-5.23209e-05
-2.16301e-08
-5.23905e-05
-2.21904e-08
-5.24595e-05
-2.28247e-08
-5.25279e-05
-2.35309e-08
-5.25957e-05
-2.43006e-08
-5.2663e-05
-2.51193e-08
-5.27298e-05
-2.59675e-08
-5.27963e-05
-2.68266e-08
-5.28626e-05
-2.76753e-08
-5.29286e-05
-2.84855e-08
-5.29945e-05
-2.9232e-08
-5.30603e-05
-2.98848e-08
-5.31262e-05
-3.04257e-08
-5.31922e-05
-3.08201e-08
-5.32583e-05
-3.10184e-08
-5.33248e-05
-3.09509e-08
-5.33915e-05
-3.06298e-08
-5.34587e-05
-3.00552e-08
-5.35265e-05
-2.90919e-08
-5.35949e-05
-2.76051e-08
-5.36641e-05
-2.55438e-08
-5.37342e-05
-2.28882e-08
-5.38053e-05
-1.96002e-08
-5.38773e-05
-1.56267e-08
-5.39506e-05
-1.09375e-08
-5.40251e-05
-5.47705e-09
-5.41002e-05
4.67071e-10
-5.41783e-05
1.03354e-08
-5.42576e-05
1.83549e-08
-5.43386e-05
2.74294e-08
-5.44213e-05
3.76581e-08
-5.45061e-05
4.90056e-08
-5.45931e-05
6.14718e-08
-5.46822e-05
7.4783e-08
-5.47747e-05
8.93423e-08
-5.48684e-05
1.0611e-07
-5.49655e-05
1.22268e-07
-5.50661e-05
1.38262e-07
-5.51705e-05
1.54015e-07
-5.52787e-05
1.69004e-07
-5.53911e-05
1.8249e-07
-5.55077e-05
1.93549e-07
-5.56289e-05
2.01068e-07
-5.5755e-05
2.03728e-07
-5.58862e-05
2.00063e-07
-5.60228e-05
1.88391e-07
-5.61647e-05
1.66874e-07
-5.63123e-05
1.34405e-07
-5.64661e-05
8.96682e-08
-5.66259e-05
3.13392e-08
-5.67916e-05
-4.0613e-08
-5.69621e-05
-1.25102e-07
-5.71334e-05
-2.19612e-07
-5.72996e-05
-3.18504e-07
-5.74506e-05
-4.13831e-07
-5.7569e-05
-4.96122e-07
-5.76261e-05
-5.53653e-07
-5.75812e-05
-5.71464e-07
-5.73511e-05
-5.12974e-07
-5.67811e-05
-3.07003e-07
-5.5626e-05
1.51503e-07
-5.34485e-05
1.04814e-06
-4.95706e-05
2.58346e-06
4.4585e-06
-4.34799e-05
-5.10236e-05
2.32747e-08
-5.10728e-05
2.87627e-08
-5.11325e-05
3.27896e-08
-5.11985e-05
3.55038e-08
-5.1268e-05
3.7319e-08
-5.1339e-05
3.84661e-08
-5.14105e-05
3.91185e-08
-5.14816e-05
3.94512e-08
-5.1552e-05
3.95212e-08
-5.16215e-05
3.93864e-08
-5.16899e-05
3.90733e-08
-5.17571e-05
3.86457e-08
-5.18231e-05
3.81276e-08
-5.18879e-05
3.75262e-08
-5.19515e-05
3.68994e-08
-5.20139e-05
3.6249e-08
-5.20752e-05
3.55991e-08
-5.21352e-05
3.49569e-08
-5.21942e-05
3.43389e-08
-5.2252e-05
3.37374e-08
-5.23088e-05
3.31612e-08
-5.23646e-05
3.2635e-08
-5.24195e-05
3.22045e-08
-5.24734e-05
3.18102e-08
-5.25264e-05
3.14021e-08
-5.25786e-05
3.09582e-08
-5.263e-05
3.05023e-08
-5.26808e-05
3.00195e-08
-5.27309e-05
2.95007e-08
-5.27804e-05
2.90279e-08
-5.28294e-05
2.86514e-08
-5.28781e-05
2.82895e-08
-5.29264e-05
2.78927e-08
-5.29744e-05
2.74656e-08
-5.30222e-05
2.70045e-08
-5.30699e-05
2.65043e-08
-5.31175e-05
2.59654e-08
-5.31651e-05
2.54e-08
-5.32127e-05
2.48259e-08
-5.32605e-05
2.42471e-08
-5.33085e-05
2.36712e-08
-5.33567e-05
2.31138e-08
-5.34053e-05
2.25925e-08
-5.34542e-05
2.21263e-08
-5.35037e-05
2.17357e-08
-5.35536e-05
2.14496e-08
-5.36041e-05
2.12906e-08
-5.36553e-05
2.12886e-08
-5.37072e-05
2.1462e-08
-5.37599e-05
2.18546e-08
-5.38134e-05
2.2508e-08
-5.38678e-05
2.34714e-08
-5.39232e-05
2.47406e-08
-5.39796e-05
2.63397e-08
-5.40371e-05
2.84299e-08
-5.40958e-05
3.11361e-08
-5.41559e-05
3.44942e-08
-5.42173e-05
3.85091e-08
-5.42801e-05
4.32235e-08
-5.43444e-05
4.87017e-08
-5.44104e-05
5.50115e-08
-5.44779e-05
6.20536e-08
-5.45479e-05
7.04574e-08
-5.46185e-05
8.09268e-08
-5.46915e-05
9.13311e-08
-5.47667e-05
1.02694e-07
-5.48443e-05
1.15255e-07
-5.49244e-05
1.29063e-07
-5.5007e-05
1.44103e-07
-5.50925e-05
1.603e-07
-5.51812e-05
1.78004e-07
-5.52723e-05
1.97244e-07
-5.53669e-05
2.16784e-07
-5.54651e-05
2.3653e-07
-5.55674e-05
2.56239e-07
-5.56738e-05
2.7541e-07
-5.57847e-05
2.93345e-07
-5.59003e-05
3.09156e-07
-5.6021e-05
3.21762e-07
-5.61471e-05
3.29888e-07
-5.62792e-05
3.32081e-07
-5.64175e-05
3.26685e-07
-5.65626e-05
3.11985e-07
-5.67148e-05
2.86561e-07
-5.68736e-05
2.48466e-07
-5.70386e-05
1.96336e-07
-5.72093e-05
1.30004e-07
-5.73833e-05
4.88893e-08
-5.7558e-05
-4.49109e-08
-5.77278e-05
-1.48755e-07
-5.78815e-05
-2.60198e-07
-5.80012e-05
-3.76417e-07
-5.80583e-05
-4.96653e-07
-5.80085e-05
-6.21284e-07
-5.77707e-05
-7.50778e-07
-5.71852e-05
-8.92587e-07
-5.59781e-05
-1.05564e-06
-5.36786e-05
-1.25142e-06
-4.96013e-05
-1.49394e-06
-1.72031e-06
-4.34225e-05
-5.08513e-05
5.8858e-08
-5.08992e-05
7.66541e-08
-5.09576e-05
9.12457e-08
-5.10226e-05
1.00463e-07
-5.10912e-05
1.05922e-07
-5.11616e-05
1.0889e-07
-5.12328e-05
1.10253e-07
-5.13039e-05
1.10597e-07
-5.13747e-05
1.1028e-07
-5.14448e-05
1.09513e-07
-5.15142e-05
1.08425e-07
-5.15826e-05
1.07107e-07
-5.16502e-05
1.05668e-07
-5.17167e-05
1.04102e-07
-5.17823e-05
1.02506e-07
-5.18469e-05
1.00856e-07
-5.19106e-05
9.92328e-08
-5.19732e-05
9.76021e-08
-5.20349e-05
9.60198e-08
-5.20956e-05
9.44559e-08
-5.21554e-05
9.29604e-08
-5.22143e-05
9.1511e-08
-5.22723e-05
9.019e-08
-5.23294e-05
8.89099e-08
-5.23857e-05
8.76848e-08
-5.24412e-05
8.64614e-08
-5.24959e-05
8.52731e-08
-5.255e-05
8.40761e-08
-5.26033e-05
8.28252e-08
-5.2656e-05
8.16735e-08
-5.27081e-05
8.07539e-08
-5.27597e-05
7.99036e-08
-5.28108e-05
7.9058e-08
-5.28616e-05
7.8242e-08
-5.29121e-05
7.74523e-08
-5.29622e-05
7.66759e-08
-5.30122e-05
7.59463e-08
-5.30621e-05
7.5269e-08
-5.31119e-05
7.4636e-08
-5.31617e-05
7.40615e-08
-5.32116e-05
7.35635e-08
-5.32616e-05
7.3154e-08
-5.33119e-05
7.28482e-08
-5.33624e-05
7.26649e-08
-5.34133e-05
7.26236e-08
-5.34646e-05
7.2754e-08
-5.35164e-05
7.30792e-08
-5.35688e-05
7.36263e-08
-5.36217e-05
7.44217e-08
-5.36754e-05
7.55032e-08
-5.37298e-05
7.69091e-08
-5.3785e-05
7.86778e-08
-5.38411e-05
8.08183e-08
-5.38981e-05
8.33427e-08
-5.39561e-05
8.6442e-08
-5.40152e-05
9.02896e-08
-5.40756e-05
9.48791e-08
-5.41373e-05
1.00187e-07
-5.42003e-05
1.06259e-07
-5.42648e-05
1.13181e-07
-5.43308e-05
1.21003e-07
-5.43985e-05
1.29802e-07
-5.44681e-05
1.40036e-07
-5.4539e-05
1.51756e-07
-5.46118e-05
1.64163e-07
-5.46867e-05
1.77658e-07
-5.47639e-05
1.92439e-07
-5.48435e-05
2.08587e-07
-5.49255e-05
2.26115e-07
-5.50102e-05
2.45048e-07
-5.50978e-05
2.65558e-07
-5.5188e-05
2.87498e-07
-5.52815e-05
3.10274e-07
-5.53786e-05
3.33629e-07
-5.54796e-05
3.57216e-07
-5.55847e-05
3.80539e-07
-5.56943e-05
4.02942e-07
-5.58088e-05
4.23581e-07
-5.59284e-05
4.41417e-07
-5.60538e-05
4.55223e-07
-5.61853e-05
4.63573e-07
-5.63234e-05
4.64857e-07
-5.64688e-05
4.57382e-07
-5.66217e-05
4.39423e-07
-5.67822e-05
4.09007e-07
-5.69504e-05
3.64531e-07
-5.71246e-05
3.04183e-07
-5.73021e-05
2.26391e-07
-5.74781e-05
1.31087e-07
-5.76467e-05
1.98309e-08
-5.77994e-05
-1.07512e-07
-5.79187e-05
-2.57123e-07
-5.79762e-05
-4.39111e-07
-5.79274e-05
-6.70169e-07
-5.76903e-05
-9.87862e-07
-5.71173e-05
-1.46555e-06
-5.59376e-05
-2.23537e-06
-5.36744e-05
-3.51461e-06
-4.96472e-05
-5.52111e-06
-7.85615e-06
-4.35113e-05
-4.91383e-05
8.43525e-08
-4.91831e-05
1.21429e-07
-4.9239e-05
1.47128e-07
-4.93022e-05
1.63697e-07
-4.93702e-05
1.73955e-07
-4.94414e-05
1.80059e-07
-4.95148e-05
1.8363e-07
-4.95897e-05
1.85531e-07
-4.96659e-05
1.86448e-07
-4.97431e-05
1.86679e-07
-4.98211e-05
1.86457e-07
-4.98999e-05
1.85889e-07
-4.99793e-05
1.85137e-07
-5.00594e-05
1.842e-07
-5.01401e-05
1.83174e-07
-5.02213e-05
1.82032e-07
-5.03029e-05
1.80873e-07
-5.0385e-05
1.79648e-07
-5.04674e-05
1.78415e-07
-5.05501e-05
1.77145e-07
-5.0633e-05
1.75887e-07
-5.07161e-05
1.74612e-07
-5.07993e-05
1.73395e-07
-5.08826e-05
1.72173e-07
-5.09658e-05
1.70957e-07
-5.10491e-05
1.69695e-07
-5.11322e-05
1.68423e-07
-5.12152e-05
1.67093e-07
-5.12981e-05
1.65658e-07
-5.13806e-05
1.64188e-07
-5.14625e-05
1.62722e-07
-5.15438e-05
1.61144e-07
-5.16242e-05
1.59487e-07
-5.17038e-05
1.57831e-07
-5.17825e-05
1.56192e-07
-5.18604e-05
1.5458e-07
-5.19375e-05
1.53029e-07
-5.20138e-05
1.51543e-07
-5.20893e-05
1.50124e-07
-5.2164e-05
1.488e-07
-5.22381e-05
1.47594e-07
-5.23114e-05
1.4652e-07