/*--------------------------------*- C++ -*----------------------------------*\
| =========                 |                                                 |
| \\      /  F ield         | OpenFOAM: The Open Source CFD Toolbox           |
|  \\    /   O peration     | Version:  2.1.0                                 |
|   \\  /    A nd           | Web:      www.OpenFOAM.org                      |
|    \\/     M anipulation  |                                                 |
\*---------------------------------------------------------------------------*/
FoamFile
{
    version     2.0;
    format      ascii;
    class       volScalarField;
    location    "0.16";
    object      rho;
}
// * * * * * * * * * * * * * * * * * * * * * * * * * * * * * * * * * * * * * //

dimensions      [1 -3 0 0 0 0 0];

internalField   nonuniform List<scalar> 
6400
(
1000
1000
1000
1000
1000
1000
1000
1000
1000
1000
1000
1000
1000
1000
1000
1000
1000
1000
1000
1000
1000
1000
1000
1000
1000
1000
1000
1000
1000
1000
1000
1000
1000
1000
1000
1000
1000
1000
1000
1000
1000
1000
1000
1000
1000
1000
1000
1000
1000
1000
1000
1000
1000
1000
1000
1000
1000
1000
1000
1000
1000
1000
1000
1000
1000
1000
1000
1000
1000
1000
1000
1000
1000
1000
1000
1000
1000
1000
1000
1000
1000
1000
1000
1000
999.999
999.999
999.999
999.999
999.998
999.998
999.997
999.997
999.996
999.996
999.997
999.997
999.982
999.904
999.731
999.539
1000
1000
1000
1000
1000
1000
1000
1000
1000
1000
1000
1000
1000
1000
1000
1000
1000
1000
1000
1000
1000
1000
1000
1000
1000
1000
1000
1000
1000
1000
1000
1000
1000
1000
1000
1000
1000
1000
1000
1000
1000
1000
1000
1000
1000
1000
1000
1000
1000
1000
1000
1000
1000
1000
1000
1000
1000
1000
1000
1000
1000
1000
1000
1000
1000
1000
1000
1000
1000
1000
1000
1000
1000
1000
1000
1000
999.999
999.999
999.999
999.999
999.998
999.998
999.998
999.997
999.996
999.995
999.993
999.991
999.989
999.986
999.982
999.976
999.968
999.956
999.936
999.901
999.844
999.759
999.641
999.51
1000
1000
1000
1000
1000
1000
1000
1000
1000
1000
1000
1000
1000
1000
1000
1000
1000
1000
1000
1000
1000
1000
1000
1000
1000
1000
1000
1000
1000
1000
1000
1000
1000
1000
1000
1000
1000
1000
1000
1000
1000
1000
1000
1000
1000
1000
1000
1000
1000
1000
1000
1000
1000
1000
1000
1000
1000
1000
1000
1000
1000
1000
1000
1000
1000
1000
1000
1000
1000
1000
1000
999.999
999.999
999.999
999.999
999.998
999.998
999.998
999.997
999.996
999.995
999.993
999.992
999.989
999.986
999.982
999.978
999.971
999.964
999.954
999.941
999.926
999.906
999.881
999.848
999.806
999.753
999.685
999.602
999.511
1000
1000
1000
1000
1000
1000
1000
1000
1000
1000
1000
1000
1000
1000
1000
1000
1000
1000
1000
1000
1000
1000
1000
1000
1000
1000
1000
1000
1000
1000
1000
1000
1000
1000
1000
1000
1000
1000
1000
1000
1000
1000
1000
1000
1000
1000
1000
1000
1000
1000
1000
1000
1000
1000
1000
1000
1000
1000
1000
1000
1000
1000
1000
1000
1000
1000
1000
999.999
999.999
999.999
999.999
999.998
999.998
999.997
999.997
999.996
999.995
999.994
999.992
999.99
999.988
999.985
999.981
999.976
999.971
999.964
999.956
999.946
999.935
999.921
999.904
999.885
999.861
999.834
999.802
999.765
999.72
999.668
999.608
999.547
1000
1000
1000
1000
1000
1000
1000
1000
1000
1000
1000
1000
1000
1000
1000
1000
1000
1000
1000
1000
1000
1000
1000
1000
1000
1000
1000
1000
1000
1000
1000
1000
1000
1000
1000
1000
1000
1000
1000
1000
1000
1000
1000
1000
1000
1000
1000
1000
1000
1000
1000
1000
1000
1000
1000
1000
1000
1000
1000
1000
1000
1000
1000
999.999
999.999
999.999
999.999
999.999
999.998
999.998
999.997
999.997
999.996
999.995
999.994
999.993
999.991
999.989
999.987
999.984
999.981
999.977
999.972
999.966
999.96
999.952
999.943
999.933
999.92
999.906
999.89
999.872
999.85
999.826
999.798
999.767
999.732
999.693
999.652
999.615
1000
1000
1000
1000
1000
1000
1000
1000
1000
1000
1000
1000
1000
1000
1000
1000
1000
1000
1000
1000
1000
1000
1000
1000
1000
1000
1000
1000
1000
1000
1000
1000
1000
1000
1000
1000
1000
1000
1000
1000
1000
1000
1000
1000
1000
1000
1000
1000
1000
1000
1000
1000
1000
1000
1000
1000
1000
1000
1000
1000
1000
999.999
999.999
999.999
999.999
999.999
999.998
999.998
999.998
999.997
999.996
999.996
999.995
999.994
999.992
999.991
999.989
999.987
999.985
999.982
999.978
999.975
999.97
999.965
999.959
999.952
999.944
999.935
999.925
999.913
999.9
999.885
999.868
999.848
999.826
999.802
999.776
999.749
999.723
999.705
1000
1000
1000
1000
1000
1000
1000
1000
1000
1000
1000
1000
1000
1000
1000
1000
1000
1000
1000
1000
1000
1000
1000
1000
1000
1000
1000
1000
1000
1000
1000
1000
1000
1000
1000
1000
1000
1000
1000
1000
1000
1000
1000
1000
1000
1000
1000
1000
1000
1000
1000
1000
1000
1000
1000
1000
1000
1000
1000
1000
999.999
999.999
999.999
999.999
999.999
999.999
999.998
999.998
999.998
999.997
999.997
999.996
999.995
999.994
999.993
999.992
999.991
999.989
999.987
999.985
999.982
999.979
999.976
999.972
999.968
999.963
999.957
999.951
999.943
999.935
999.925
999.915
999.902
999.888
999.873
999.856
999.838
999.821
999.806
999.8
1000
1000
1000
1000
1000
1000
1000
1000
1000
1000
1000
1000
1000
1000
1000
1000
1000
1000
1000
1000
1000
1000
1000
1000
1000
1000
1000
1000
1000
1000
1000
1000
1000
1000
1000
1000
1000
1000
1000
1000
1000
1000
1000
1000
1000
1000
1000
1000
1000
1000
1000
1000
1000
1000
1000
1000
1000
1000
1000
1000
1000
1000
999.999
999.999
999.999
999.999
999.999
999.999
999.998
999.998
999.998
999.997
999.997
999.996
999.996
999.995
999.994
999.993
999.992
999.991
999.989
999.987
999.985
999.983
999.981
999.978
999.974
999.971
999.966
999.961
999.956
999.949
999.942
999.934
999.925
999.914
999.904
999.894
999.886
999.885
1000
1000
1000
1000
1000
1000
1000
1000
1000
1000
1000
1000
1000
1000
1000
1000
1000
1000
1000
1000
1000
1000
1000
1000
1000
1000
1000
1000
1000
1000
1000
1000
1000
1000
1000
1000
1000
1000
1000
1000
1000
1000
1000
1000
1000
1000
1000
1000
1000
1000
1000
1000
1000
1000
1000
1000
1000
1000
1000
1000
1000
1000
1000
1000
1000
999.999
999.999
999.999
999.999
999.999
999.999
999.999
999.998
999.998
999.998
999.997
999.997
999.997
999.996
999.996
999.995
999.994
999.993
999.992
999.991
999.99
999.988
999.987
999.985
999.983
999.98
999.977
999.974
999.97
999.966
999.962
999.957
999.952
999.949
999.949
1000
1000
1000
1000
1000
1000
1000
1000
1000
1000
1000
1000
1000
1000
1000
1000
1000
1000
1000
1000
1000
1000
1000
1000
1000
1000
1000
1000
1000
1000
1000
1000
1000
1000
1000
1000
1000
1000
1000
1000
1000
1000
1000
1000
1000
1000
1000
1000
1000
1000
1000
1000
1000
1000
1000
1000
1000
1000
1000
1000
1000
1000
1000
1000
1000
1000
1000
1000
1000
1000
1000
999.999
999.999
999.999
999.999
999.999
999.999
999.999
999.998
999.998
999.998
999.998
999.997
999.997
999.997
999.996
999.996
999.995
999.995
999.994
999.994
999.993
999.992
999.991
999.99
999.99
999.988
999.987
999.987
999.987
1000
1000
1000
1000
1000
1000
1000
1000
1000
1000
1000
1000
1000
1000
1000
1000
1000
1000
1000
1000
1000
1000
1000
1000
1000
1000
1000
1000
1000
1000
1000
1000
1000
1000
1000
1000
1000
1000
1000
1000
1000
1000
1000
1000
1000
1000
1000
1000
1000
1000
1000
1000
1000
1000
1000
1000
1000
1000
1000
1000
1000
1000
1000
1000
1000
1000
1000
1000
1000
1000
1000
1000
1000
1000
1000
1000
1000
1000
1000
999.999
999.999
999.999
999.999
999.999
999.999
999.999
999.999
999.999
999.999
999.999
999.999
999.999
999.999
999.999
999.999
999.999
999.999
999.999
999.999
999.999
1000
1000
1000
1000
1000
1000
1000
1000
1000
1000
1000
1000
1000
1000
1000
1000
1000
1000
1000
1000
1000
1000
1000
1000
1000
1000
1000
1000
1000
1000
1000
1000
1000
1000
1000
1000
1000
1000
1000
1000
1000
1000
1000
1000
1000
1000
1000
1000
1000
1000
1000
1000
1000
1000
1000
1000
1000
1000
1000
1000
1000
1000
1000
1000
1000
1000
1000
1000
1000
1000
1000
1000
1000
1000
1000
1000
1000
1000
1000
1000
1000
1000
1000
1000
1000
1000
1000
1000
1000
1000
1000
1000
1000
1000
1000
1000
1000
1000
1000
1000
1000
1000
1000
1000
1000
1000
1000
1000
1000
1000
1000
1000
1000
1000
1000
1000
1000
1000
1000
1000
1000
1000
1000
1000
1000
1000
1000
1000
1000
1000
1000
1000
1000
1000
1000
1000
1000
1000
1000
1000
1000
1000
1000
1000
1000
1000
1000
1000
1000
1000
1000
1000
1000
1000
1000
1000
1000
1000
1000
1000
1000
1000
1000
1000
1000
1000
1000
1000
1000
1000
1000
1000
1000
1000
1000
1000
1000
1000
1000
1000
1000
1000
1000
1000
1000
1000
1000
1000
1000
1000
1000
1000
1000
1000
1000
1000
1000
1000
1000
1000
1000
1000
1000
1000
1000
1000
1000
1000
1000
1000
1000
1000
1000
1000
1000
1000
1000
1000
1000
1000
1000
1000
1000
1000
1000
1000
1000
1000
1000
1000
1000
1000
1000
1000
1000
1000
1000
1000
1000
1000
1000
1000
1000
1000
1000
1000
1000
1000
1000
1000
1000
1000
1000
1000
1000
1000
1000
1000
1000
1000
1000
1000
1000
1000
1000
1000
1000
1000
1000
1000
1000
1000
1000
1000
1000
1000
1000
1000
1000
1000
1000
1000
1000
1000
1000
1000
1000
1000
1000
1000
1000
1000
1000
1000
1000
1000
1000
1000
1000
1000
1000
1000
1000
1000
1000
1000
1000
1000
1000
1000
1000
1000
1000
1000
1000
1000
1000
1000
1000
1000
1000
1000
1000
1000
1000
1000
1000
1000
1000
1000
1000
1000
1000
1000
1000
1000
1000
1000
1000
1000
1000
1000
1000
1000
1000
1000
1000
1000
1000
1000
1000
1000
1000
1000
1000
1000
1000
1000
1000
1000
1000
1000
1000
1000
1000
1000
1000
1000
1000
1000
1000
1000
1000
1000
1000
1000
1000
1000
1000
1000
1000
1000
1000
1000
1000
1000
1000
1000
1000
1000
1000
1000
1000
1000
1000
1000
1000
1000
1000
1000
1000
1000
1000
1000
1000
1000
1000
1000
1000
1000
1000
1000
1000
1000
1000
1000
1000
1000
1000
1000
1000
1000
1000
1000
1000
1000
1000
1000
1000
1000
1000
1000
1000
1000
1000
1000
1000
1000
1000
1000
1000
1000
1000
1000
1000
1000
1000
1000
1000
1000
1000
1000
1000
1000
1000
1000
1000
1000
1000
1000
1000
1000
1000
1000
1000
1000
1000
1000
1000
1000
1000
1000
1000
1000
1000
1000
1000
1000
1000
1000
1000
1000
1000
1000
1000
1000
1000
1000
1000
1000
1000
1000
1000
1000
1000
1000
1000
1000
1000
1000
1000
1000
1000
1000
1000
1000
1000
1000
1000
1000
1000
1000
1000
1000
1000
1000
1000
1000
1000
1000
1000
1000
1000
1000
1000
1000
1000
1000
1000
1000
1000
1000
1000
1000
1000
1000
1000
1000
1000
1000
1000
1000
1000
1000
1000
1000
1000
1000
1000
1000
1000
1000
1000
1000
1000
1000
1000
1000
1000
1000
1000
1000
1000
1000
1000
1000
1000
1000
1000
1000
1000
1000
1000
1000
1000
1000
1000
1000
1000
1000
1000
1000
1000
1000
1000
1000
1000
1000
1000
1000
1000
1000
1000
1000
1000
1000
1000
1000
1000
1000
1000
1000
1000
1000
1000
1000
1000
1000
1000
1000
1000
1000
1000
1000
1000
1000
1000
1000
1000
1000
1000
1000
1000
1000
1000
1000
1000
1000
1000
1000
1000
1000
1000
1000
1000
1000
1000
1000
1000
1000
1000
1000
1000
1000
1000
1000
1000
1000
1000
1000
1000
1000
1000
1000
1000
1000
1000
1000
1000
1000
1000
1000
1000
1000
1000
1000
1000
1000
1000
1000
1000
1000
1000
1000
1000
1000
1000
1000
1000
1000
1000
1000
1000
1000
1000
1000
1000
1000
1000
1000
1000
1000
1000
1000
1000
1000
1000
1000
1000
1000
1000
1000
1000
1000
1000
1000
1000
1000
1000
1000
1000
1000
1000
1000
1000
1000
1000
1000
1000
1000
1000
1000
1000
1000
1000
1000
1000
1000
1000
1000
1000
1000
1000
1000
1000
1000
1000
1000
1000
1000
1000
1000
1000
1000
1000
1000
1000
1000
1000
1000
1000
1000
1000
1000
1000
1000
1000
1000
1000
1000
1000
1000
1000
1000
1000
1000
1000
1000
1000
1000
1000
1000
1000
1000
1000
1000
1000
1000
1000
1000
1000
1000
1000
1000
1000
1000
1000
1000
1000
1000
1000
1000
1000
1000
1000
1000
1000
1000
1000
1000
1000
1000
1000
1000
1000
1000
1000
1000
1000
1000
1000
1000
1000
1000
1000
1000
1000
1000
1000
1000
1000
1000
1000
1000
1000
1000
1000
1000
1000
1000
1000
1000
1000
1000
1000
1000
1000
1000
1000
1000
1000
1000
1000
1000
1000
1000
1000
1000
1000
1000
1000
1000
1000
1000
1000
1000
1000
1000
1000
1000
1000
1000
1000
1000
1000
1000
1000
1000
1000
1000
1000
1000
1000
1000
1000
1000
1000
1000
1000
1000
1000
1000
1000
1000
1000
1000
1000
1000
1000
1000
1000
1000
1000
1000
1000
1000
1000
1000
1000
1000
999.42
999.206
999.223
999.311
999.394
999.458
999.504
999.535
999.557
999.571
999.581
999.589
999.597
999.609
999.632
999.673
999.737
999.825
999.922
999.99
999.401
999.294
999.341
999.426
999.498
999.553
999.592
999.619
999.638
999.652
999.663
999.672
999.683
999.698
999.722
999.76
999.814
999.882
999.951
999.995
999.428
999.401
999.461
999.534
999.594
999.639
999.671
999.694
999.711
999.724
999.735
999.746
999.758
999.774
999.798
999.831
999.874
999.924
999.971
999.997
999.501
999.519
999.577
999.636
999.683
999.718
999.743
999.762
999.777
999.789
999.8
999.811
999.823
999.839
999.86
999.886
999.919
999.954
999.984
999.999
999.604
999.638
999.686
999.729
999.763
999.788
999.808
999.823
999.836
999.846
999.856
999.866
999.877
999.891
999.908
999.928
999.952
999.975
999.992
1000
999.715
999.747
999.781
999.81
999.833
999.851
999.865
999.877
999.887
999.895
999.903
999.912
999.921
999.932
999.944
999.958
999.974
999.987
999.997
1000
999.816
999.839
999.86
999.878
999.893
999.905
999.914
999.922
999.929
999.935
999.941
999.947
999.954
999.961
999.97
999.978
999.987
999.995
999.999
1000
999.898
999.911
999.923
999.932
999.94
999.947
999.952
999.957
999.961
999.965
999.969
999.973
999.977
999.981
999.986
999.99
999.995
999.998
1000
1000
999.956
999.961
999.966
999.97
999.974
999.977
999.979
999.982
999.984
999.986
999.987
999.989
999.991
999.993
999.995
999.997
999.998
1000
1000
1000
999.989
999.99
999.991
999.992
999.993
999.994
999.995
999.996
999.996
999.997
999.997
999.998
999.998
999.998
999.999
999.999
1000
1000
1000
1000
999.999
999.999
999.999
1000
1000
1000
1000
1000
1000
1000
1000
1000
1000
1000
1000
1000
1000
1000
1000
1000
1000
1000
1000
1000
1000
1000
1000
1000
1000
1000
1000
1000
1000
1000
1000
1000
1000
1000
1000
1000
1000
1000
1000
1000
1000
1000
1000
1000
1000
1000
1000
1000
1000
1000
1000
1000
1000
1000
1000
1000
1000
1000
1000
1000
1000
1000
1000
1000
1000
1000
1000
1000
1000
1000
1000
1000
1000
1000
1000
1000
1000
1000
1000
1000
1000
1000
1000
1000
1000
1000
1000
1000
1000
1000
1000
1000
1000
1000
1000
1000
1000
1000
1000
1000
1000
1000
1000
1000
1000
1000
1000
1000
1000
1000
1000
1000
1000
1000
1000
1000
1000
1000
1000
1000
1000
1000
1000
1000
1000
1000
1000
1000
1000
1000
1000
1000
1000
1000
1000
1000
1000
1000
1000
1000
1000
1000
1000
1000
1000
1000
1000
1000
1000
1000
1000
1000
1000
1000
1000
1000
1000
1000
1000
1000
1000
1000
1000
1000
1000
1000
1000
1000
1000
1000
1000
1000
1000
1000
1000
1000
1000
1000
1000
1000
1000
1000
1000
1000
1000
1000
1000
1000
1000
1000
1000
1000
1000
1000
1000
1000
944.555
944.555
944.555
944.555
944.555
944.555
944.555
944.555
944.555
944.555
944.555
944.555
944.555
944.555
944.555
944.555
944.555
944.555
944.555
944.555
944.555
944.555
944.555
944.555
944.555
944.555
944.555
944.555
944.555
944.555
944.555
944.555
944.555
944.555
944.555
944.555
944.555
944.555
944.555
944.555
944.555
944.555
944.555
944.555
944.555
944.555
944.555
944.555
944.555
944.555
944.555
944.555
944.555
944.555
944.555
944.555
944.555
944.555
944.555
944.555
944.555
944.555
944.555
944.555
944.555
944.555
944.555
944.555
944.555
944.555
944.555
944.555
944.555
944.555
944.555
944.555
944.555
944.555
944.555
944.555
944.555
944.555
944.555
944.555
944.555
944.555
944.555
944.555
944.555
944.555
944.555
944.555
944.555
944.555
944.555
944.555
944.555
944.555
944.555
944.555
944.555
944.555
944.555
944.555
944.555
944.555
944.555
944.555
944.555
944.555
944.555
944.555
944.555
944.555
944.555
944.555
944.555
944.555
944.555
944.555
944.555
944.555
944.555
944.555
944.555
944.555
944.555
944.555
944.555
944.555
944.555
944.555
944.555
944.555
944.555
944.555
944.555
944.555
944.555
944.555
944.555
944.555
944.555
944.555
944.555
944.555
944.555
944.555
944.555
944.555
944.555
944.555
944.555
944.555
944.555
944.555
944.555
944.555
944.555
944.555
944.555
944.555
944.555
944.555
944.555
944.555
944.555
944.555
944.555
944.555
944.555
944.555
944.555
944.555
944.555
944.555
944.555
944.555
944.555
944.555
944.555
944.555
944.555
944.555
944.555
944.555
944.555
944.555
944.555
944.555
944.555
944.555
944.555
944.555
944.555
944.555
944.555
944.555
944.555
944.555
944.555
944.555
944.555
944.555
944.555
944.555
944.555
944.555
944.555
944.555
944.555
944.555
944.555
944.555
944.555
944.555
944.555
944.555
944.555
944.555
944.555
944.555
944.555
944.555
944.555
944.555
944.555
944.555
944.555
944.555
944.555
944.555
944.555
944.555
944.555
944.555
944.555
944.555
944.555
944.555
944.555
944.555
944.555
944.555
944.555
944.555
944.555
944.555
944.555
944.555
944.555
944.555
944.555
944.555
944.555
944.555
944.555
944.555
944.555
944.555
944.555
944.555
944.555
944.555
944.555
944.555
944.555
944.555
944.555
944.555
944.555
944.555
944.555
944.555
944.555
944.555
944.555
944.555
944.555
944.555
944.555
944.555
944.555
944.555
944.555
944.555
944.555
944.555
944.555
944.555
944.555
944.555
944.555
944.555
944.555
944.555
944.555
944.555
944.555
944.555
944.555
944.555
944.555
944.555
944.555
944.555
944.555
944.555
944.555
944.555
944.555
944.555
944.555
944.555
944.555
944.555
944.555
944.555
944.555
944.555
944.555
944.555
944.555
944.555
944.555
944.555
944.555
944.555
944.555
944.555
944.555
944.555
944.555
944.555
944.555
944.555
944.555
944.555
944.555
944.555
944.555
944.555
944.555
944.555
944.555
944.555
944.555
944.555
944.555
944.555
944.555
944.555
944.555
944.555
944.555
944.555
944.555
944.555
944.555
944.555
944.555
944.555
944.555
944.555
944.555
944.555
944.555
944.555
944.555
944.555
944.555
944.555
944.555
944.555
944.555
944.555
944.555
944.555
944.555
944.555
944.555
944.555
944.555
944.555
944.555
944.555
944.555
944.555
944.555
944.555
944.555
944.555
944.555
944.555
944.555
944.555
944.555
944.555
944.555
944.555
944.555
944.555
944.555
944.555
944.555
944.555
944.555
944.555
944.555
944.555
944.555
944.555
944.555
944.555
944.555
944.555
944.555
944.555
944.555
944.555
944.555
944.555
944.555
944.555
944.555
944.555
944.555
944.555
944.555
944.555
944.555
944.555
944.555
944.555
944.555
944.555
944.555
944.555
944.555
944.555
944.555
944.555
944.555
944.555
944.555
944.555
944.555
944.555
944.555
944.555
944.555
944.555
944.555
944.555
944.555
944.555
944.555
944.555
944.555
944.555
944.555
944.555
944.555
944.555
944.555
944.555
944.555
944.555
944.555
944.555
944.555
944.555
944.555
944.555
944.555
944.555
944.555
944.555
944.555
944.555
944.555
944.555
944.555
944.555
944.555
944.555
944.555
944.555
944.555
944.555
944.555
944.555
944.555
944.555
944.555
944.555
944.555
944.555
944.555
944.555
944.555
944.555
944.555
944.555
944.555
944.555
944.555
944.555
944.555
944.555
944.555
944.555
944.555
944.555
944.555
944.555
944.555
944.555
944.555
944.555
944.555
944.555
944.555
944.555
944.555
944.555
944.555
944.555
944.555
944.555
944.555
944.555
944.555
944.555
944.555
944.555
944.555
944.555
944.555
944.555
944.555
944.555
944.555
944.555
944.555
944.555
944.555
944.555
944.555
944.555
944.555
944.555
944.555
944.555
944.555
944.555
944.555
944.555
944.555
944.555
944.555
944.555
944.555
944.555
944.555
944.555
944.555
944.555
944.555
944.555
944.555
944.555
944.555
944.555
944.555
944.555
944.555
944.555
944.555
944.555
944.555
944.555
944.555
944.555
944.555
944.555
944.555
944.555
944.555
944.555
944.555
944.555
944.555
944.555
944.555
944.555
944.555
944.555
944.555
944.555
944.555
944.555
944.555
944.555
944.555
944.555
944.555
944.555
944.555
944.555
944.555
944.555
944.555
944.555
944.555
944.555
944.555
944.555
944.555
944.555
944.555
944.555
944.555
944.555
944.555
944.555
944.555
944.555
944.555
944.555
944.555
944.555
944.555
944.555
944.555
944.555
944.555
944.555
944.555
944.555
944.555
944.555
944.555
944.555
944.555
944.555
944.555
944.555
944.555
944.555
944.555
944.555
944.555
944.555
944.555
944.555
944.555
944.555
944.555
944.555
944.555
944.555
944.555
944.555
944.555
944.555
944.555
944.555
944.555
944.555
944.555
944.555
944.555
944.555
944.555
944.555
944.555
944.555
944.555
944.555
944.555
944.555
944.555
944.555
944.555
944.555
944.555
944.555
944.555
944.555
944.555
944.555
944.555
944.555
944.555
944.555
944.555
944.555
944.555
944.555
944.555
944.555
944.555
944.555
944.555
944.555
944.555
944.555
944.555
944.555
944.555
944.555
944.555
944.555
944.555
944.555
944.555
944.555
944.555
944.555
944.555
944.555
944.555
944.555
944.555
944.555
944.555
944.555
944.555
944.555
944.555
944.555
944.555
944.555
944.555
944.555
944.555
944.555
944.555
944.555
944.555
944.555
944.555
944.555
944.555
944.555
944.555
944.555
944.555
944.555
944.555
944.555
944.555
944.555
944.555
944.555
944.555
944.555
944.555
944.555
944.555
944.555
944.555
944.555
944.555
944.555
944.555
944.555
944.555
944.555
944.555
944.555
944.555
944.555
944.555
944.555
944.555
944.555
944.555
944.555
944.555
944.555
944.555
944.555
944.555
944.555
944.555
944.555
944.555
944.555
944.555
944.555
944.555
944.555
944.555
944.555
944.555
944.555
944.555
944.555
944.556
944.555
944.555
944.555
944.555
944.555
944.555
944.555
944.555
944.555
944.555
944.555
944.555
944.555
944.555
944.555
944.555
944.555
944.555
944.556
944.558
944.555
944.555
944.555
944.555
944.555
944.555
944.555
944.555
944.555
944.555
944.555
944.555
944.555
944.555
944.555
944.555
944.555
944.555
944.558
944.56
944.556
944.556
944.556
944.556
944.556
944.556
944.556
944.556
944.556
944.556
944.556
944.556
944.556
944.556
944.556
944.556
944.556
944.556
944.56
944.564
944.557
944.556
944.556
944.556
944.556
944.557
944.557
944.557
944.557
944.557
944.557
944.557
944.557
944.556
944.556
944.556
944.556
944.557
944.564
944.571
944.559
944.557
944.557
944.557
944.557
944.558
944.558
944.558
944.558
944.558
944.558
944.558
944.558
944.557
944.557
944.557
944.557
944.559
944.571
944.582
944.562
944.559
944.558
944.559
944.559
944.559
944.559
944.56
944.56
944.56
944.56
944.559
944.559
944.559
944.559
944.558
944.559
944.562
944.582
944.6
944.566
944.561
944.56
944.561
944.561
944.562
944.562
944.562
944.562
944.562
944.562
944.562
944.562
944.561
944.561
944.56
944.561
944.566
944.6
944.628
944.573
944.565
944.564
944.564
944.565
944.565
944.566
944.566
944.566
944.566
944.566
944.566
944.565
944.565
944.564
944.564
944.565
944.573
944.628
944.67
944.584
944.57
944.569
944.569
944.57
944.571
944.572
944.572
944.572
944.572
944.572
944.572
944.571
944.57
944.569
944.569
944.57
944.584
944.669
944.732
944.601
944.579
944.576
944.576
944.578
944.579
944.58
944.58
944.581
944.581
944.58
944.58
944.579
944.578
944.576
944.576
944.579
944.601
944.731
944.821
944.625
944.591
944.586
944.587
944.589
944.59
944.591
944.592
944.593
944.593
944.592
944.591
944.59
944.589
944.587
944.586
944.591
944.625
944.821
944.948
944.66
944.61
944.602
944.602
944.604
944.607
944.608
944.609
944.61
944.61
944.609
944.608
944.607
944.604
944.602
944.602
944.61
944.659
944.947
945.123
944.709
944.636
944.623
944.624
944.627
944.629
944.632
944.633
944.634
944.634
944.633
944.632
944.629
944.627
944.624
944.624
944.636
944.709
945.122
945.36
944.777
944.672
944.654
944.654
944.658
944.661
944.664
944.667
944.668
944.668
944.667
944.664
944.661
944.658
944.654
944.654
944.672
944.777
945.359
945.676
944.871
944.723
944.697
944.696
944.701
944.705
944.709
944.712
944.714
944.714
944.712
944.709
944.706
944.701
944.696
944.697
944.723
944.871
945.675
946.087
944.997
944.792
944.755
944.753
944.759
944.765
944.77
944.774
944.776
944.776
944.774
944.771
944.766
944.759
944.754
944.755
944.793
944.997
946.087
946.614
945.163
944.885
944.834
944.831
944.838
944.846
944.853
944.857
944.86
944.86
944.858
944.853
944.846
944.838
944.832
944.835
944.886
945.164
946.614
947.275
945.379
945.009
944.939
944.934
944.943
944.953
944.962
944.968
944.971
944.971
944.968
944.962
944.954
944.944
944.935
944.94
945.011
945.38
947.277
948.092
945.656
945.172
945.078
945.071
945.081
945.094
945.105
945.113
945.117
945.117
945.113
945.106
945.095
945.082
945.072
945.08
945.174
945.658
948.095
949.081
946.004
945.382
945.259
945.249
945.261
945.277
945.291
945.301
945.306
945.306
945.301
945.292
945.279
945.263
945.251
945.262
945.385
946.009
949.088
950.26
946.437
945.65
945.492
945.478
945.493
945.512
945.529
945.541
945.548
945.548
945.542
945.531
945.514
945.495
945.481
945.496
945.655
946.445
950.271
951.641
946.967
945.987
945.788
945.769
945.787
945.811
945.832
945.846
945.854
945.854
945.847
945.834
945.813
945.79
945.773
945.794
945.995
946.98
951.658
953.231
947.608
946.407
946.16
946.134
946.156
946.185
946.21
946.228
946.237
946.238
946.23
946.213
946.188
946.161
946.14
946.168
946.418
947.629
953.257
955.032
948.375
946.924
946.621
946.587
946.613
946.648
946.678
946.7
946.711
946.712
946.702
946.682
946.653
946.619
946.596
946.631
946.939
948.404
955.068
957.04
949.282
947.552
947.185
947.143
947.172
947.214
947.25
947.277
947.29
947.291
947.28
947.255
947.221
947.181
947.154
947.199
947.572
949.321
957.088
959.241
950.342
948.306
947.866
947.815
947.849
947.898
947.941
947.973
947.989
947.991
947.977
947.948
947.907
947.861
947.829
947.885
948.331
950.391
959.303
961.616
951.566
949.198
948.679
948.617
948.657
948.715
948.766
948.803
948.823
948.824
948.808
948.775
948.727
948.673
948.637
948.703
949.231
951.626
961.692
964.139
952.96
950.242
949.637
949.563
949.61
949.677
949.737
949.781
949.804
949.807
949.788
949.749
949.693
949.631
949.589
949.668
950.283
953.032
964.228
966.779
954.529
951.446
950.75
950.665
950.719
950.798
950.868
950.92
950.947
950.95
950.929
950.884
950.819
950.746
950.698
950.789
951.497
954.611
966.88
969.498
956.268
952.817
952.027
951.932
951.995
952.087
952.169
952.229
952.262
952.265
952.241
952.188
952.114
952.029
951.973
952.076
952.879
956.361
969.609
972.257
958.172
954.357
953.474
953.369
953.444
953.551
953.646
953.716
953.754
953.759
953.73
953.67
953.584
953.487
953.42
953.534
954.431
958.276
972.376
975.014
960.228
956.064
955.089
954.979
955.067
955.191
955.302
955.383
955.427
955.434
955.401
955.332
955.233
955.12
955.041
955.162
956.151
960.344
975.137
977.726
962.422
957.929
956.87
956.757
956.862
957.005
957.133
957.227
957.279
957.287
957.25
957.171
957.057
956.926
956.833
956.958
958.031
962.55
977.851
980.354
964.737
959.94
958.806
958.695
958.82
958.985
959.133
959.242
959.303
959.312
959.27
959.179
959.047
958.897
958.785
958.909
960.059
964.878
980.478
982.86
967.149
962.08
960.881
960.778
960.927
961.117
961.287
961.414
961.485
961.497
961.448
961.342
961.191
961.018
960.885
961.001
962.219
967.307
982.982
985.216
969.632
964.326
963.077
962.989
963.164
963.381
963.576
963.724
963.809
963.823
963.766
963.643
963.47
963.271
963.112
963.214
964.486
969.802
985.334
987.393
972.153
966.653
965.37
965.306
965.511
965.756
965.976
966.149
966.25
966.267
966.201
966.059
965.861
965.635
965.447
965.524
966.833
972.329
987.507
989.366
974.672
969.038
967.74
967.708
967.943
968.214
968.463
968.666
968.784
968.804
968.725
968.558
968.337
968.085
967.866
967.911
969.236
974.852
989.473
991.119
977.141
971.453
970.165
970.17
970.432
970.728
971.018
971.253
971.387
971.406
971.316
971.12
970.867
970.591
970.344
970.354
971.672
977.334
991.217
992.647
979.529
973.874
972.62
972.661
972.945
973.269
973.611
973.88
974.027
974.045
973.944
973.725
973.425
973.122
972.851
972.827
974.116
979.741
992.738
993.956
981.803
976.278
975.079
975.153
975.453
975.807
976.199
976.496
976.641
976.661
976.56
976.327
975.983
975.646
975.356
975.301
976.541
982.044
994.042
995.059
983.948
978.638
977.51
977.612
977.923
978.304
978.742
979.052
979.191
979.215
979.113
978.871
978.498
978.132
977.827
977.745
978.922
984.221
995.147
995.974
985.952
980.927
979.884
980.008
980.321
980.729
981.204
981.52
981.652
981.676
981.579
981.327
980.933
980.547
980.232
980.13
981.231
986.254
996.073
996.724
987.8
983.12
982.171
982.309
982.622
983.053
983.546
983.86
983.982
983.994
983.911
983.663
983.259
982.86
982.543
982.426
983.444
988.133
996.841
997.332
989.482
985.192
984.345
984.491
984.802
985.243
985.735
986.034
986.144
986.146
986.068
985.841
985.443
985.045
984.731
984.607
985.539
989.849
997.475
997.822
990.996
987.126
986.381
986.53
986.835
987.275
987.749
988.028
988.12
988.119
988.052
987.844
987.465
987.078
986.775
986.651
987.497
991.401
997.993
998.215
992.343
988.905
988.262
988.41
988.706
989.132
989.575
989.828
989.903
989.9
989.839
989.658
989.313
988.946
988.658
988.54
989.305
992.789
998.415
998.531
993.529
990.52
989.975
990.118
990.401
990.806
991.209
991.431
991.493
991.48
991.423
991.273
990.971
990.636
990.37
990.263
990.953
994.018
998.757
998.783
994.56
991.967
991.514
991.648
991.917
992.294
992.651
992.842
992.893
992.872
992.813
992.699
992.442
992.144
991.905
991.816
992.437
995.095
999.032
998.982
995.448
993.247
992.877
993.003
993.257
993.599
993.909
994.071
994.114
994.092
994.026
993.928
993.73
993.472
993.265
993.196
993.757
996.029
999.253
999.139
996.202
994.363
994.069
994.188
994.425
994.731
994.995
995.13
995.166
995.146
995.085
994.99
994.835
994.624
994.452
994.41
994.917
996.83
999.429
999.26
996.837
995.326
995.098
995.213
995.432
995.701
995.921
996.033
996.064
996.048
995.995
995.911
995.783
995.615
995.478
995.464
995.923
997.509
999.569
999.353
997.365
996.146
995.975
996.089
996.29
996.522
996.704
996.795
996.823
996.811
996.768
996.697
996.592
996.46
996.356
996.37
996.787
998.078
999.679
999.422
997.799
996.837
996.717
996.83
997.013
997.211
997.359
997.433
997.457
997.45
997.417
997.359
997.275
997.175
997.103
997.142
997.517
998.548
999.765
999.47
998.151
997.412
997.339
997.452
997.617
997.782
997.901
997.962
997.984
997.98
997.955
997.91
997.846
997.774
997.732
997.792
998.126
998.931
999.831
999.5
998.437
997.886
997.856
997.969
998.116
998.252
998.347
998.397
998.417
998.417
998.399
998.366
998.32
998.273
998.257
998.334
998.626
999.237
999.882
999.513
998.664
998.275
998.285
998.397
998.525
998.636
998.711
998.752
998.77
998.773
998.762
998.74
998.711
998.686
998.693
998.78
999.027
999.476
999.921
999.507
998.845
998.597
998.641
998.749
998.86
998.948
999.007
999.041
999.058
999.063
999.058
999.046
999.032
999.026
999.051
999.141
999.341
999.658
999.949
999.483