/*--------------------------------*- C++ -*----------------------------------*\
| =========                 |                                                 |
| \\      /  F ield         | OpenFOAM: The Open Source CFD Toolbox           |
|  \\    /   O peration     | Version:  2.1.0                                 |
|   \\  /    A nd           | Web:      www.OpenFOAM.org                      |
|    \\/     M anipulation  |                                                 |
\*---------------------------------------------------------------------------*/
FoamFile
{
    version     2.0;
    format      ascii;
    class       volScalarField;
    location    "0.16";
    object      T;
}
// * * * * * * * * * * * * * * * * * * * * * * * * * * * * * * * * * * * * * //

dimensions      [0 0 0 1 0 0 0];

internalField   nonuniform List<scalar> 
6400
(
293.15
293.15
293.15
293.15
293.15
293.15
293.15
293.15
293.15
293.15
293.15
293.15
293.15
293.15
293.15
293.15
293.15
293.15
293.15
293.15
293.15
293.15
293.15
293.15
293.15
293.15
293.15
293.15
293.15
293.15
293.15
293.15
293.15
293.15
293.15
293.15
293.15
293.15
293.15
293.15
293.15
293.15
293.15
293.15
293.15
293.15
293.15
293.15
293.15
293.15
293.15
293.15
293.15
293.15
293.15
293.15
293.15
293.15
293.15
293.15
293.15
293.15
293.15
293.15
293.15
293.15
293.15
293.15
293.15
293.15
293.15
293.15
293.15
293.15
293.15
293.15
293.15
293.15
293.15
293.15
293.15
293.151
293.151
293.151
293.151
293.151
293.152
293.152
293.153
293.153
293.154
293.155
293.156
293.156
293.155
293.156
293.181
293.313
293.608
293.935
293.15
293.15
293.15
293.15
293.15
293.15
293.15
293.15
293.15
293.15
293.15
293.15
293.15
293.15
293.15
293.15
293.15
293.15
293.15
293.15
293.15
293.15
293.15
293.15
293.15
293.15
293.15
293.15
293.15
293.15
293.15
293.15
293.15
293.15
293.15
293.15
293.15
293.15
293.15
293.15
293.15
293.15
293.15
293.15
293.15
293.15
293.15
293.15
293.15
293.15
293.15
293.15
293.15
293.15
293.15
293.15
293.15
293.15
293.15
293.15
293.15
293.15
293.15
293.15
293.15
293.15
293.15
293.15
293.15
293.15
293.15
293.15
293.15
293.15
293.151
293.151
293.151
293.151
293.152
293.152
293.153
293.153
293.154
293.155
293.157
293.159
293.161
293.165
293.169
293.174
293.181
293.19
293.204
293.224
293.259
293.319
293.416
293.561
293.762
293.985
293.15
293.15
293.15
293.15
293.15
293.15
293.15
293.15
293.15
293.15
293.15
293.15
293.15
293.15
293.15
293.15
293.15
293.15
293.15
293.15
293.15
293.15
293.15
293.15
293.15
293.15
293.15
293.15
293.15
293.15
293.15
293.15
293.15
293.15
293.15
293.15
293.15
293.15
293.15
293.15
293.15
293.15
293.15
293.15
293.15
293.15
293.15
293.15
293.15
293.15
293.15
293.15
293.15
293.15
293.15
293.15
293.15
293.15
293.15
293.15
293.15
293.15
293.15
293.15
293.15
293.15
293.15
293.15
293.15
293.151
293.151
293.151
293.151
293.152
293.152
293.153
293.153
293.154
293.155
293.157
293.159
293.161
293.164
293.168
293.173
293.18
293.188
293.199
293.212
293.229
293.25
293.277
293.31
293.354
293.409
293.48
293.571
293.687
293.829
293.984
293.15
293.15
293.15
293.15
293.15
293.15
293.15
293.15
293.15
293.15
293.15
293.15
293.15
293.15
293.15
293.15
293.15
293.15
293.15
293.15
293.15
293.15
293.15
293.15
293.15
293.15
293.15
293.15
293.15
293.15
293.15
293.15
293.15
293.15
293.15
293.15
293.15
293.15
293.15
293.15
293.15
293.15
293.15
293.15
293.15
293.15
293.15
293.15
293.15
293.15
293.15
293.15
293.15
293.15
293.15
293.15
293.15
293.15
293.15
293.15
293.15
293.15
293.15
293.15
293.15
293.151
293.151
293.151
293.151
293.152
293.152
293.153
293.153
293.154
293.155
293.157
293.159
293.161
293.164
293.167
293.171
293.176
293.183
293.19
293.2
293.211
293.225
293.242
293.262
293.285
293.313
293.347
293.386
293.433
293.487
293.551
293.627
293.717
293.818
293.922
293.15
293.15
293.15
293.15
293.15
293.15
293.15
293.15
293.15
293.15
293.15
293.15
293.15
293.15
293.15
293.15
293.15
293.15
293.15
293.15
293.15
293.15
293.15
293.15
293.15
293.15
293.15
293.15
293.15
293.15
293.15
293.15
293.15
293.15
293.15
293.15
293.15
293.15
293.15
293.15
293.15
293.15
293.15
293.15
293.15
293.15
293.15
293.15
293.15
293.15
293.15
293.15
293.15
293.15
293.15
293.15
293.15
293.15
293.15
293.15
293.15
293.151
293.151
293.151
293.151
293.151
293.152
293.152
293.153
293.153
293.154
293.155
293.157
293.158
293.16
293.162
293.165
293.169
293.173
293.177
293.183
293.19
293.198
293.208
293.219
293.232
293.247
293.265
293.285
293.309
293.337
293.369
293.405
293.446
293.493
293.547
293.607
293.673
293.743
293.805
293.15
293.15
293.15
293.15
293.15
293.15
293.15
293.15
293.15
293.15
293.15
293.15
293.15
293.15
293.15
293.15
293.15
293.15
293.15
293.15
293.15
293.15
293.15
293.15
293.15
293.15
293.15
293.15
293.15
293.15
293.15
293.15
293.15
293.15
293.15
293.15
293.15
293.15
293.15
293.15
293.15
293.15
293.15
293.15
293.15
293.15
293.15
293.15
293.15
293.15
293.15
293.15
293.15
293.15
293.15
293.15
293.15
293.15
293.15
293.151
293.151
293.151
293.151
293.151
293.152
293.152
293.153
293.153
293.154
293.155
293.156
293.157
293.159
293.161
293.163
293.165
293.168
293.172
293.176
293.181
293.187
293.193
293.201
293.21
293.22
293.231
293.245
293.26
293.277
293.297
293.32
293.346
293.376
293.409
293.446
293.487
293.531
293.578
293.623
293.653
293.15
293.15
293.15
293.15
293.15
293.15
293.15
293.15
293.15
293.15
293.15
293.15
293.15
293.15
293.15
293.15
293.15
293.15
293.15
293.15
293.15
293.15
293.15
293.15
293.15
293.15
293.15
293.15
293.15
293.15
293.15
293.15
293.15
293.15
293.15
293.15
293.15
293.15
293.15
293.15
293.15
293.15
293.15
293.15
293.15
293.15
293.15
293.15
293.15
293.15
293.15
293.15
293.15
293.15
293.15
293.15
293.15
293.15
293.151
293.151
293.151
293.151
293.151
293.152
293.152
293.152
293.153
293.153
293.154
293.155
293.156
293.157
293.158
293.16
293.162
293.164
293.166
293.169
293.172
293.176
293.18
293.185
293.191
293.197
293.205
293.213
293.223
293.234
293.247
293.261
293.277
293.296
293.317
293.34
293.366
293.395
293.425
293.456
293.481
293.491
293.15
293.15
293.15
293.15
293.15
293.15
293.15
293.15
293.15
293.15
293.15
293.15
293.15
293.15
293.15
293.15
293.15
293.15
293.15
293.15
293.15
293.15
293.15
293.15
293.15
293.15
293.15
293.15
293.15
293.15
293.15
293.15
293.15
293.15
293.15
293.15
293.15
293.15
293.15
293.15
293.15
293.15
293.15
293.15
293.15
293.15
293.15
293.15
293.15
293.15
293.15
293.15
293.15
293.15
293.15
293.15
293.15
293.15
293.15
293.151
293.151
293.151
293.151
293.151
293.151
293.152
293.152
293.152
293.153
293.153
293.154
293.155
293.155
293.156
293.157
293.159
293.16
293.162
293.164
293.166
293.168
293.171
293.175
293.179
293.183
293.188
293.194
293.2
293.207
293.216
293.225
293.236
293.249
293.263
293.278
293.296
293.314
293.331
293.344
293.346
293.15
293.15
293.15
293.15
293.15
293.15
293.15
293.15
293.15
293.15
293.15
293.15
293.15
293.15
293.15
293.15
293.15
293.15
293.15
293.15
293.15
293.15
293.15
293.15
293.15
293.15
293.15
293.15
293.15
293.15
293.15
293.15
293.15
293.15
293.15
293.15
293.15
293.15
293.15
293.15
293.15
293.15
293.15
293.15
293.15
293.15
293.15
293.15
293.15
293.15
293.15
293.15
293.15
293.15
293.15
293.15
293.15
293.15
293.15
293.15
293.15
293.15
293.151
293.151
293.151
293.151
293.151
293.151
293.151
293.152
293.152
293.152
293.153
293.153
293.154
293.154
293.155
293.156
293.157
293.158
293.159
293.16
293.162
293.163
293.165
293.168
293.17
293.173
293.176
293.18
293.184
293.189
293.194
293.2
293.207
293.215
293.224
293.232
293.237
293.237
293.15
293.15
293.15
293.15
293.15
293.15
293.15
293.15
293.15
293.15
293.15
293.15
293.15
293.15
293.15
293.15
293.15
293.15
293.15
293.15
293.15
293.15
293.15
293.15
293.15
293.15
293.15
293.15
293.15
293.15
293.15
293.15
293.15
293.15
293.15
293.15
293.15
293.15
293.15
293.15
293.15
293.15
293.15
293.15
293.15
293.15
293.15
293.15
293.15
293.15
293.15
293.15
293.15
293.15
293.15
293.15
293.15
293.15
293.15
293.15
293.15
293.15
293.15
293.15
293.15
293.15
293.15
293.151
293.151
293.151
293.151
293.151
293.151
293.151
293.152
293.152
293.152
293.152
293.153
293.153
293.153
293.154
293.154
293.155
293.156
293.156
293.157
293.158
293.159
293.16
293.161
293.162
293.163
293.165
293.166
293.168
293.17
293.172
293.173
293.172
293.15
293.15
293.15
293.15
293.15
293.15
293.15
293.15
293.15
293.15
293.15
293.15
293.15
293.15
293.15
293.15
293.15
293.15
293.15
293.15
293.15
293.15
293.15
293.15
293.15
293.15
293.15
293.15
293.15
293.15
293.15
293.15
293.15
293.15
293.15
293.15
293.15
293.15
293.15
293.15
293.15
293.15
293.15
293.15
293.15
293.15
293.15
293.15
293.15
293.15
293.15
293.15
293.15
293.15
293.15
293.15
293.15
293.15
293.15
293.15
293.15
293.15
293.15
293.15
293.15
293.15
293.15
293.15
293.15
293.15
293.15
293.15
293.15
293.15
293.151
293.151
293.151
293.151
293.151
293.151
293.151
293.151
293.151
293.151
293.151
293.152
293.152
293.152
293.152
293.152
293.152
293.152
293.152
293.152
293.152
293.152
293.152
293.152
293.152
293.152
293.15
293.15
293.15
293.15
293.15
293.15
293.15
293.15
293.15
293.15
293.15
293.15
293.15
293.15
293.15
293.15
293.15
293.15
293.15
293.15
293.15
293.15
293.15
293.15
293.15
293.15
293.15
293.15
293.15
293.15
293.15
293.15
293.15
293.15
293.15
293.15
293.15
293.15
293.15
293.15
293.15
293.15
293.15
293.15
293.15
293.15
293.15
293.15
293.15
293.15
293.15
293.15
293.15
293.15
293.15
293.15
293.15
293.15
293.15
293.15
293.15
293.15
293.15
293.15
293.15
293.15
293.15
293.15
293.15
293.15
293.15
293.15
293.15
293.15
293.15
293.15
293.15
293.15
293.15
293.15
293.15
293.15
293.15
293.15
293.15
293.15
293.15
293.15
293.15
293.15
293.15
293.15
293.15
293.15
293.15
293.15
293.15
293.15
293.15
293.15
293.15
293.15
293.15
293.15
293.15
293.15
293.15
293.15
293.15
293.15
293.15
293.15
293.15
293.15
293.15
293.15
293.15
293.15
293.15
293.15
293.15
293.15
293.15
293.15
293.15
293.15
293.15
293.15
293.15
293.15
293.15
293.15
293.15
293.15
293.15
293.15
293.15
293.15
293.15
293.15
293.15
293.15
293.15
293.15
293.15
293.15
293.15
293.15
293.15
293.15
293.15
293.15
293.15
293.15
293.15
293.15
293.15
293.15
293.15
293.15
293.15
293.15
293.15
293.15
293.15
293.15
293.15
293.15
293.15
293.15
293.15
293.15
293.15
293.15
293.15
293.15
293.15
293.15
293.15
293.15
293.15
293.15
293.15
293.15
293.15
293.15
293.15
293.15
293.15
293.15
293.15
293.15
293.15
293.15
293.15
293.15
293.15
293.15
293.15
293.15
293.15
293.15
293.15
293.15
293.15
293.15
293.15
293.15
293.15
293.15
293.15
293.15
293.15
293.15
293.15
293.15
293.15
293.15
293.15
293.15
293.15
293.15
293.15
293.15
293.15
293.15
293.15
293.15
293.15
293.15
293.15
293.15
293.15
293.15
293.15
293.15
293.15
293.15
293.15
293.15
293.15
293.15
293.15
293.15
293.15
293.15
293.15
293.15
293.15
293.15
293.15
293.15
293.15
293.15
293.15
293.15
293.15
293.15
293.15
293.15
293.15
293.15
293.15
293.15
293.15
293.15
293.15
293.15
293.15
293.15
293.15
293.15
293.15
293.15
293.15
293.15
293.15
293.15
293.15
293.15
293.15
293.15
293.15
293.15
293.15
293.15
293.15
293.15
293.15
293.15
293.15
293.15
293.15
293.15
293.15
293.15
293.15
293.15
293.15
293.15
293.15
293.15
293.15
293.15
293.15
293.15
293.15
293.15
293.15
293.15
293.15
293.15
293.15
293.15
293.15
293.15
293.15
293.15
293.15
293.15
293.15
293.15
293.15
293.15
293.15
293.15
293.15
293.15
293.15
293.15
293.15
293.15
293.15
293.15
293.15
293.15
293.15
293.15
293.15
293.15
293.15
293.15
293.15
293.15
293.15
293.15
293.15
293.15
293.15
293.15
293.15
293.15
293.15
293.15
293.15
293.15
293.15
293.15
293.15
293.15
293.15
293.15
293.15
293.15
293.15
293.15
293.15
293.15
293.15
293.15
293.15
293.15
293.15
293.15
293.15
293.15
293.15
293.15
293.15
293.15
293.15
293.15
293.15
293.15
293.15
293.15
293.15
293.15
293.15
293.15
293.15
293.15
293.15
293.15
293.15
293.15
293.15
293.15
293.15
293.15
293.15
293.15
293.15
293.15
293.15
293.15
293.15
293.15
293.15
293.15
293.15
293.15
293.15
293.15
293.15
293.15
293.15
293.15
293.15
293.15
293.15
293.15
293.15
293.15
293.15
293.15
293.15
293.15
293.15
293.15
293.15
293.15
293.15
293.15
293.15
293.15
293.15
293.15
293.15
293.15
293.15
293.15
293.15
293.15
293.15
293.15
293.15
293.15
293.15
293.15
293.15
293.15
293.15
293.15
293.15
293.15
293.15
293.15
293.15
293.15
293.15
293.15
293.15
293.15
293.15
293.15
293.15
293.15
293.15
293.15
293.15
293.15
293.15
293.15
293.15
293.15
293.15
293.15
293.15
293.15
293.15
293.15
293.15
293.15
293.15
293.15
293.15
293.15
293.15
293.15
293.15
293.15
293.15
293.15
293.15
293.15
293.15
293.15
293.15
293.15
293.15
293.15
293.15
293.15
293.15
293.15
293.15
293.15
293.15
293.15
293.15
293.15
293.15
293.15
293.15
293.15
293.15
293.15
293.15
293.15
293.15
293.15
293.15
293.15
293.15
293.15
293.15
293.15
293.15
293.15
293.15
293.15
293.15
293.15
293.15
293.15
293.15
293.15
293.15
293.15
293.15
293.15
293.15
293.15
293.15
293.15
293.15
293.15
293.15
293.15
293.15
293.15
293.15
293.15
293.15
293.15
293.15
293.15
293.15
293.15
293.15
293.15
293.15
293.15
293.15
293.15
293.15
293.15
293.15
293.15
293.15
293.15
293.15
293.15
293.15
293.15
293.15
293.15
293.15
293.15
293.15
293.15
293.15
293.15
293.15
293.15
293.15
293.15
293.15
293.15
293.15
293.15
293.15
293.15
293.15
293.15
293.15
293.15
293.15
293.15
293.15
293.15
293.15
293.15
293.15
293.15
293.15
293.15
293.15
293.15
293.15
293.15
293.15
293.15
293.15
293.15
293.15
293.15
293.15
293.15
293.15
293.15
293.15
293.15
293.15
293.15
293.15
293.15
293.15
293.15
293.15
293.15
293.15
293.15
293.15
293.15
293.15
293.15
293.15
293.15
293.15
293.15
293.15
293.15
293.15
293.15
293.15
293.15
293.15
293.15
293.15
293.15
293.15
293.15
293.15
293.15
293.15
293.15
293.15
293.15
293.15
293.15
293.15
293.15
293.15
293.15
293.15
293.15
293.15
293.15
293.15
293.15
293.15
293.15
293.15
293.15
293.15
293.15
293.15
293.15
293.15
293.15
293.15
293.15
293.15
293.15
293.15
293.15
293.15
293.15
293.15
293.15
293.15
293.15
293.15
293.15
293.15
293.15
293.15
293.15
293.15
293.15
293.15
293.15
293.15
293.15
293.15
293.15
293.15
293.15
293.15
293.15
293.15
293.15
293.15
293.15
293.15
293.15
293.15
293.15
293.15
293.15
293.15
293.15
293.15
293.15
293.15
293.15
293.15
293.15
293.15
293.15
293.15
293.15
293.15
293.15
293.15
293.15
293.15
293.15
293.15
293.15
293.15
293.15
293.15
293.15
293.15
293.15
293.15
293.15
293.15
293.15
293.15
293.15
293.15
293.15
293.15
293.15
293.15
293.15
293.15
293.15
293.15
293.15
293.15
293.15
293.15
293.15
293.15
293.15
293.15
293.15
293.15
293.15
293.15
293.15
293.15
293.15
293.15
293.15
293.15
293.15
293.15
293.15
293.15
293.15
293.15
293.15
293.15
293.15
293.15
293.15
293.15
293.15
293.15
293.15
293.15
293.15
293.15
293.15
293.15
293.15
293.15
293.15
293.15
293.15
293.15
293.15
293.15
293.15
293.15
293.15
293.15
293.15
293.15
293.15
293.15
293.15
293.15
293.15
293.15
293.15
293.15
293.15
293.15
293.15
293.15
293.15
293.15
293.15
293.15
293.15
293.15
293.15
293.15
293.15
293.15
293.15
293.15
293.15
293.15
293.15
293.15
293.15
293.15
293.15
293.15
293.15
293.15
293.15
293.15
293.15
293.15
293.15
293.15
293.15
293.15
293.15
293.15
293.15
293.15
293.15
293.15
293.15
293.15
293.15
293.15
293.15
293.15
293.15
293.15
293.15
293.15
293.15
293.15
293.15
293.15
293.15
293.15
293.15
293.15
293.15
293.15
293.15
293.15
293.15
293.15
293.15
293.15
293.15
293.15
293.15
293.15
293.15
293.15
293.15
293.15
293.15
293.15
293.15
294.139
294.504
294.474
294.324
294.183
294.074
293.995
293.942
293.906
293.881
293.864
293.851
293.837
293.816
293.777
293.708
293.598
293.448
293.282
293.166
294.172
294.353
294.273
294.129
294.005
293.912
293.846
293.799
293.767
293.743
293.725
293.709
293.691
293.665
293.623
293.559
293.467
293.351
293.234
293.159
294.126
294.171
294.069
293.944
293.841
293.765
293.711
293.671
293.642
293.62
293.601
293.583
293.562
293.534
293.494
293.438
293.365
293.279
293.2
293.154
294
293.969
293.87
293.77
293.691
293.631
293.588
293.555
293.53
293.51
293.491
293.473
293.452
293.425
293.389
293.343
293.288
293.228
293.177
293.152
293.825
293.767
293.686
293.612
293.554
293.51
293.477
293.451
293.43
293.412
293.395
293.378
293.359
293.335
293.307
293.272
293.232
293.193
293.163
293.151
293.636
293.582
293.523
293.474
293.434
293.404
293.379
293.36
293.343
293.329
293.315
293.3
293.285
293.266
293.245
293.221
293.195
293.172
293.155
293.15
293.463
293.425
293.388
293.357
293.332
293.313
293.296
293.283
293.271
293.261
293.25
293.24
293.228
293.216
293.202
293.187
293.172
293.159
293.152
293.15
293.323
293.301
293.282
293.265
293.252
293.241
293.231
293.223
293.216
293.209
293.203
293.196
293.189
293.182
293.174
293.166
293.159
293.153
293.15
293.15
293.225
293.216
293.208
293.201
293.195
293.19
293.185
293.181
293.178
293.175
293.172
293.169
293.165
293.162
293.159
293.156
293.153
293.151
293.15
293.15
293.169
293.167
293.165
293.163
293.161
293.16
293.158
293.157
293.156
293.156
293.155
293.154
293.153
293.153
293.152
293.151
293.15
293.15
293.15
293.15
293.151
293.151
293.151
293.151
293.151
293.151
293.15
293.15
293.15
293.15
293.15
293.15
293.15
293.15
293.15
293.15
293.15
293.15
293.15
293.15
293.15
293.15
293.15
293.15
293.15
293.15
293.15
293.15
293.15
293.15
293.15
293.15
293.15
293.15
293.15
293.15
293.15
293.15
293.15
293.15
293.15
293.15
293.15
293.15
293.15
293.15
293.15
293.15
293.15
293.15
293.15
293.15
293.15
293.15
293.15
293.15
293.15
293.15
293.15
293.15
293.15
293.15
293.15
293.15
293.15
293.15
293.15
293.15
293.15
293.15
293.15
293.15
293.15
293.15
293.15
293.15
293.15
293.15
293.15
293.15
293.15
293.15
293.15
293.15
293.15
293.15
293.15
293.15
293.15
293.15
293.15
293.15
293.15
293.15
293.15
293.15
293.15
293.15
293.15
293.15
293.15
293.15
293.15
293.15
293.15
293.15
293.15
293.15
293.15
293.15
293.15
293.15
293.15
293.15
293.15
293.15
293.15
293.15
293.15
293.15
293.15
293.15
293.15
293.15
293.15
293.15
293.15
293.15
293.15
293.15
293.15
293.15
293.15
293.15
293.15
293.15
293.15
293.15
293.15
293.15
293.15
293.15
293.15
293.15
293.15
293.15
293.15
293.15
293.15
293.15
293.15
293.15
293.15
293.15
293.15
293.15
293.15
293.15
293.15
293.15
293.15
293.15
293.15
293.15
293.15
293.15
293.15
293.15
293.15
293.15
293.15
293.15
293.15
293.15
293.15
293.15
293.15
293.15
293.15
293.15
293.15
293.15
293.15
293.15
293.15
293.15
293.15
293.15
293.15
293.15
293.15
293.15
293.15
293.15
293.15
293.15
293.15
293.15
293.15
293.15
393.15
393.15
393.15
393.15
393.15
393.15
393.15
393.15
393.15
393.15
393.15
393.15
393.15
393.15
393.15
393.15
393.15
393.15
393.15
393.15
393.15
393.15
393.15
393.15
393.15
393.15
393.15
393.15
393.15
393.15
393.15
393.15
393.15
393.15
393.15
393.15
393.15
393.15
393.15
393.15
393.15
393.15
393.15
393.15
393.15
393.15
393.15
393.15
393.15
393.15
393.15
393.15
393.15
393.15
393.15
393.15
393.15
393.15
393.15
393.15
393.15
393.15
393.15
393.15
393.15
393.15
393.15
393.15
393.15
393.15
393.15
393.15
393.15
393.15
393.15
393.15
393.15
393.15
393.15
393.15
393.15
393.15
393.15
393.15
393.15
393.15
393.15
393.15
393.15
393.15
393.15
393.15
393.15
393.15
393.15
393.15
393.15
393.15
393.15
393.15
393.15
393.15
393.15
393.15
393.15
393.15
393.15
393.15
393.15
393.15
393.15
393.15
393.15
393.15
393.15
393.15
393.15
393.15
393.15
393.15
393.15
393.15
393.15
393.15
393.15
393.15
393.15
393.15
393.15
393.15
393.15
393.15
393.15
393.15
393.15
393.15
393.15
393.15
393.15
393.15
393.15
393.15
393.15
393.15
393.15
393.15
393.15
393.15
393.15
393.15
393.15
393.15
393.15
393.15
393.15
393.15
393.15
393.15
393.15
393.15
393.15
393.15
393.15
393.15
393.15
393.15
393.15
393.15
393.15
393.15
393.15
393.15
393.15
393.15
393.15
393.15
393.15
393.15
393.15
393.15
393.15
393.15
393.15
393.15
393.15
393.15
393.15
393.15
393.15
393.15
393.15
393.15
393.15
393.15
393.15
393.15
393.15
393.15
393.15
393.15
393.15
393.15
393.15
393.15
393.15
393.15
393.15
393.15
393.15
393.15
393.15
393.15
393.15
393.15
393.15
393.15
393.15
393.15
393.15
393.15
393.15
393.15
393.15
393.15
393.15
393.15
393.15
393.15
393.15
393.15
393.15
393.15
393.15
393.15
393.15
393.15
393.15
393.15
393.15
393.15
393.15
393.15
393.15
393.15
393.15
393.15
393.15
393.15
393.15
393.15
393.15
393.15
393.15
393.15
393.15
393.15
393.15
393.15
393.15
393.15
393.15
393.15
393.15
393.15
393.15
393.15
393.15
393.15
393.15
393.15
393.15
393.15
393.15
393.15
393.15
393.15
393.15
393.15
393.15
393.15
393.15
393.15
393.15
393.15
393.15
393.15
393.15
393.15
393.15
393.15
393.15
393.15
393.15
393.15
393.15
393.15
393.15
393.15
393.15
393.15
393.15
393.15
393.15
393.15
393.15
393.15
393.15
393.15
393.15
393.15
393.15
393.15
393.15
393.15
393.15
393.15
393.15
393.15
393.15
393.15
393.15
393.15
393.15
393.15
393.15
393.15
393.15
393.15
393.15
393.15
393.15
393.15
393.15
393.15
393.15
393.15
393.15
393.15
393.15
393.15
393.15
393.15
393.15
393.15
393.15
393.15
393.15
393.15
393.15
393.15
393.15
393.15
393.15
393.15
393.15
393.15
393.15
393.15
393.15
393.15
393.15
393.15
393.15
393.15
393.15
393.15
393.15
393.15
393.15
393.15
393.15
393.15
393.15
393.15
393.15
393.15
393.15
393.15
393.15
393.15
393.15
393.15
393.15
393.15
393.15
393.15
393.15
393.15
393.15
393.15
393.15
393.15
393.15
393.15
393.15
393.15
393.15
393.15
393.15
393.15
393.15
393.15
393.15
393.15
393.15
393.15
393.15
393.15
393.15
393.15
393.15
393.15
393.15
393.15
393.15
393.15
393.15
393.15
393.15
393.15
393.15
393.15
393.15
393.15
393.15
393.15
393.15
393.15
393.15
393.15
393.15
393.15
393.15
393.15
393.15
393.15
393.15
393.15
393.15
393.15
393.15
393.15
393.15
393.15
393.15
393.15
393.15
393.15
393.15
393.15
393.15
393.15
393.15
393.15
393.15
393.15
393.15
393.15
393.15
393.15
393.15
393.15
393.15
393.15
393.15
393.15
393.15
393.15
393.15
393.15
393.15
393.15
393.15
393.15
393.15
393.15
393.15
393.15
393.15
393.15
393.15
393.15
393.15
393.15
393.15
393.15
393.15
393.15
393.15
393.15
393.15
393.15
393.15
393.15
393.15
393.15
393.15
393.15
393.15
393.15
393.15
393.15
393.15
393.15
393.15
393.15
393.15
393.15
393.15
393.15
393.15
393.15
393.15
393.15
393.15
393.15
393.15
393.15
393.15
393.15
393.15
393.15
393.15
393.15
393.15
393.15
393.15
393.15
393.15
393.15
393.15
393.15
393.15
393.15
393.15
393.15
393.15
393.15
393.15
393.15
393.15
393.15
393.15
393.15
393.15
393.15
393.15
393.15
393.15
393.15
393.15
393.15
393.15
393.15
393.15
393.15
393.15
393.15
393.15
393.15
393.15
393.15
393.15
393.15
393.15
393.15
393.15
393.15
393.15
393.15
393.15
393.15
393.15
393.15
393.15
393.15
393.15
393.15
393.15
393.15
393.15
393.15
393.15
393.15
393.15
393.15
393.15
393.15
393.15
393.15
393.15
393.15
393.15
393.15
393.15
393.15
393.15
393.15
393.15
393.15
393.15
393.15
393.15
393.15
393.15
393.15
393.15
393.15
393.15
393.15
393.15
393.15
393.15
393.15
393.15
393.15
393.15
393.15
393.15
393.15
393.15
393.15
393.15
393.15
393.15
393.15
393.15
393.15
393.15
393.15
393.15
393.15
393.15
393.15
393.15
393.15
393.15
393.15
393.15
393.15
393.15
393.15
393.15
393.15
393.15
393.15
393.15
393.15
393.15
393.15
393.15
393.15
393.15
393.15
393.15
393.15
393.15
393.15
393.15
393.15
393.15
393.15
393.15
393.15
393.15
393.15
393.15
393.15
393.15
393.15
393.15
393.15
393.15
393.15
393.15
393.15
393.15
393.15
393.15
393.15
393.15
393.15
393.15
393.15
393.15
393.15
393.15
393.15
393.15
393.15
393.15
393.15
393.15
393.15
393.15
393.15
393.15
393.15
393.15
393.15
393.15
393.15
393.15
393.15
393.15
393.15
393.15
393.15
393.15
393.15
393.15
393.15
393.15
393.15
393.15
393.15
393.15
393.15
393.15
393.15
393.15
393.15
393.15
393.15
393.15
393.15
393.15
393.15
393.15
393.15
393.15
393.15
393.15
393.15
393.15
393.15
393.15
393.15
393.15
393.15
393.15
393.15
393.15
393.15
393.15
393.15
393.15
393.15
393.15
393.15
393.15
393.15
393.15
393.15
393.15
393.15
393.15
393.15
393.15
393.15
393.149
393.15
393.15
393.15
393.15
393.15
393.15
393.15
393.15
393.15
393.15
393.15
393.15
393.15
393.15
393.15
393.15
393.15
393.15
393.149
393.148
393.15
393.15
393.15
393.15
393.15
393.149
393.149
393.149
393.149
393.149
393.149
393.149
393.149
393.15
393.15
393.15
393.15
393.15
393.148
393.147
393.149
393.149
393.149
393.149
393.149
393.149
393.149
393.149
393.149
393.149
393.149
393.149
393.149
393.149
393.149
393.149
393.149
393.149
393.147
393.144
393.149
393.149
393.149
393.149
393.149
393.149
393.148
393.148
393.148
393.148
393.148
393.148
393.149
393.149
393.149
393.149
393.149
393.149
393.144
393.14
393.147
393.148
393.148
393.148
393.148
393.148
393.148
393.147
393.147
393.147
393.147
393.148
393.148
393.148
393.148
393.148
393.148
393.147
393.14
393.132
393.145
393.147
393.147
393.147
393.147
393.146
393.146
393.146
393.146
393.146
393.146
393.146
393.146
393.147
393.147
393.147
393.147
393.145
393.132
393.119
393.142
393.145
393.146
393.145
393.145
393.144
393.144
393.144
393.144
393.144
393.144
393.144
393.144
393.145
393.145
393.146
393.145
393.142
393.119
393.097
393.137
393.142
393.143
393.142
393.142
393.141
393.141
393.14
393.14
393.14
393.14
393.141
393.141
393.142
393.142
393.143
393.143
393.137
393.097
393.063
393.128
393.138
393.139
393.138
393.137
393.136
393.136
393.135
393.135
393.135
393.135
393.136
393.136
393.137
393.138
393.139
393.138
393.128
393.063
393.01
393.114
393.131
393.133
393.132
393.13
393.129
393.128
393.128
393.128
393.128
393.128
393.128
393.129
393.13
393.132
393.133
393.131
393.114
393.01
392.93
393.094
393.12
393.123
393.122
393.121
393.119
393.118
393.117
393.116
393.116
393.117
393.118
393.119
393.121
393.122
393.123
393.12
393.094
392.931
392.812
393.062
393.104
393.109
393.108
393.106
393.104
393.102
393.101
393.1
393.1
393.101
393.102
393.104
393.106
393.108
393.109
393.104
393.062
392.813
392.641
393.016
393.08
393.089
393.088
393.085
393.082
393.08
393.078
393.077
393.077
393.078
393.08
393.082
393.085
393.088
393.089
393.08
393.016
392.642
392.4
392.95
393.045
393.06
393.059
393.055
393.051
393.048
393.045
393.044
393.044
393.045
393.048
393.051
393.055
393.059
393.06
393.045
392.95
392.401
392.065
392.855
392.995
393.018
393.018
393.012
393.007
393.003
393
392.998
392.998
393
393.003
393.007
393.012
393.017
393.018
392.995
392.856
392.067
391.612
392.724
392.926
392.96
392.96
392.953
392.946
392.94
392.936
392.934
392.934
392.936
392.94
392.946
392.953
392.959
392.96
392.925
392.724
391.614
391.011
392.545
392.829
392.879
392.88
392.871
392.862
392.854
392.849
392.846
392.846
392.849
392.854
392.862
392.871
392.879
392.878
392.828
392.545
391.012
390.227
392.305
392.696
392.767
392.77
392.76
392.748
392.738
392.731
392.727
392.727
392.73
392.737
392.747
392.759
392.769
392.766
392.695
392.305
390.227
389.225
391.988
392.518
392.617
392.622
392.609
392.594
392.581
392.572
392.567
392.567
392.571
392.58
392.593
392.608
392.621
392.615
392.517
391.987
389.223
387.967
391.576
392.281
392.415
392.425
392.408
392.389
392.372
392.361
392.355
392.355
392.36
392.372
392.388
392.407
392.423
392.413
392.279
391.573
387.964
386.418
391.049
391.972
392.15
392.164
392.144
392.12
392.099
392.084
392.077
392.076
392.084
392.098
392.118
392.142
392.161
392.147
391.967
391.044
386.411
384.545
390.385
391.571
391.804
391.825
391.801
391.77
391.744
391.726
391.716
391.716
391.725
391.742
391.768
391.797
391.821
391.799
391.565
390.376
384.532
382.317
389.561
391.06
391.36
391.388
391.359
391.322
391.289
391.267
391.255
391.254
391.265
391.287
391.318
391.354
391.382
391.353
391.05
389.546
382.296
379.715
388.552
390.417
390.796
390.833
390.799
390.753
390.713
390.685
390.671
390.67
390.683
390.71
390.748
390.792
390.825
390.785
390.403
388.528
379.683
376.728
387.335
389.618
390.088
390.137
390.096
390.041
389.993
389.959
389.941
389.939
389.955
389.988
390.034
390.087
390.126
390.073
389.597
387.297
376.68
373.357
385.881
388.634
389.211
389.275
389.226
389.16
389.102
389.061
389.039
389.037
389.056
389.095
389.15
389.214
389.259
389.191
388.606
385.826
373.289
369.615
384.164
387.441
388.139
388.219
388.163
388.084
388.014
387.965
387.938
387.936
387.959
388.005
388.07
388.145
388.198
388.113
387.404
384.092
369.525
365.53
382.161
386.012
386.846
386.944
386.878
386.785
386.703
386.644
386.612
386.609
386.636
386.69
386.767
386.855
386.915
386.811
385.964
382.07
365.416
361.144
379.856
384.322
385.305
385.423
385.347
385.238
385.141
385.071
385.033
385.03
385.06
385.124
385.214
385.316
385.385
385.259
384.261
379.744
361.004
356.507
377.236
382.351
383.493
383.632
383.544
383.417
383.303
383.221
383.176
383.172
383.208
383.281
383.386
383.505
383.584
383.435
382.273
377.102
356.344
351.683
374.298
380.081
381.392
381.552
381.45
381.301
381.169
381.073
381.02
381.014
381.055
381.14
381.262
381.399
381.491
381.319
379.986
374.144
351.498
346.742
371.051
377.504
378.988
379.167
379.047
378.875
378.721
378.609
378.547
378.54
378.587
378.685
378.825
378.984
379.09
378.896
377.389
370.877
346.539
341.756
367.511
374.619
376.273
376.468
376.328
376.128
375.949
375.819
375.747
375.738
375.791
375.904
376.065
376.248
376.373
376.16
374.481
367.318
341.541
336.802
363.704
371.432
373.25
373.457
373.291
373.06
372.853
372.702
372.618
372.607
372.667
372.796
372.981
373.192
373.339
373.113
371.27
363.491
336.58
331.955
359.659
367.962
369.93
370.141
369.945
369.678
369.44
369.265
369.168
369.154
369.223
369.37
369.582
369.825
369.999
369.767
367.773
359.425
331.732
327.286
355.413
364.235
366.335
366.541
366.309
366.003
365.729
365.527
365.414
365.396
365.475
365.644
365.887
366.166
366.373
366.144
364.015
355.154
327.065
322.854
351.009
360.288
362.497
362.687
362.414
362.063
361.749
361.515
361.383
361.362
361.452
361.647
361.925
362.244
362.49
362.276
360.032
350.722
322.64
318.711
346.499
356.165
358.456
358.617
358.296
357.897
357.538
357.267
357.112
357.086
357.191
357.415
357.733
358.098
358.39
358.204
355.871
346.19
318.504
314.899
341.943
351.912
354.254
354.37
353.997
353.549
353.146
352.83
352.646
352.615
352.736
352.995
353.356
353.77
354.114
353.972
351.584
341.625
314.701
311.458
337.415
347.574
349.933
349.99
349.563
349.071
348.618
348.249
348.035
347.999
348.142
348.445
348.847
349.305
349.704
349.621
347.216
337.092
311.273
308.414
332.998
343.206
345.533
345.524
345.05
344.514
343.989
343.565
343.323
343.288
343.452
343.805
344.263
344.762
345.209
345.19
342.81
332.654
308.243
305.769
328.748
338.846
341.1
341.026
340.515
339.932