/*--------------------------------*- C++ -*----------------------------------*\
| =========                 |                                                 |
| \\      /  F ield         | OpenFOAM: The Open Source CFD Toolbox           |
|  \\    /   O peration     | Version:  2.1.0                                 |
|   \\  /    A nd           | Web:      www.OpenFOAM.org                      |
|    \\/     M anipulation  |                                                 |
\*---------------------------------------------------------------------------*/
FoamFile
{
    version     2.0;
    format      ascii;
    class       volVectorField;
    location    "0.16";
    object      U;
}
// * * * * * * * * * * * * * * * * * * * * * * * * * * * * * * * * * * * * * //

dimensions      [0 1 -1 0 0 0 0];

internalField   nonuniform List<vector> 
6400
(
(-1.19784 3.83551e-05 0)
(-1.19727 -0.000254737 0)
(-1.19596 -0.000444149 0)
(-1.19396 -0.000565758 0)
(-1.19156 -0.00065178 0)
(-1.18885 -0.000718101 0)
(-1.18591 -0.000771441 0)
(-1.18276 -0.000817025 0)
(-1.17946 -0.00085741 0)
(-1.17599 -0.000894805 0)
(-1.17238 -0.00093016 0)
(-1.16864 -0.000964309 0)
(-1.16476 -0.000997534 0)
(-1.16075 -0.0010302 0)
(-1.15662 -0.00106235 0)
(-1.15235 -0.00109421 0)
(-1.14796 -0.0011257 0)
(-1.14345 -0.00115706 0)
(-1.13881 -0.00118825 0)
(-1.13406 -0.00121902 0)
(-1.12918 -0.00124991 0)
(-1.12417 -0.00128151 0)
(-1.11904 -0.00131322 0)
(-1.11379 -0.00134515 0)
(-1.10841 -0.00137735 0)
(-1.10289 -0.00141018 0)
(-1.09725 -0.00144352 0)
(-1.09148 -0.00147763 0)
(-1.08557 -0.00151238 0)
(-1.07952 -0.00154797 0)
(-1.07333 -0.00158435 0)
(-1.06699 -0.00162179 0)
(-1.0605 -0.00166021 0)
(-1.05386 -0.00169973 0)
(-1.04706 -0.00174046 0)
(-1.0401 -0.00178264 0)
(-1.03297 -0.00182628 0)
(-1.02566 -0.00187163 0)
(-1.01817 -0.00191875 0)
(-1.01048 -0.00196789 0)
(-1.0026 -0.00201912 0)
(-0.994516 -0.00207255 0)
(-0.986214 -0.00212818 0)
(-0.977687 -0.00218608 0)
(-0.968928 -0.00224623 0)
(-0.959926 -0.00230861 0)
(-0.950673 -0.00237317 0)
(-0.941162 -0.00243991 0)
(-0.931385 -0.00250749 0)
(-0.921339 -0.00257611 0)
(-0.911012 -0.00264928 0)
(-0.900387 -0.00272711 0)
(-0.889452 -0.00280614 0)
(-0.878212 -0.00288297 0)
(-0.866672 -0.00295671 0)
(-0.854843 -0.00302918 0)
(-0.842727 -0.00310203 0)
(-0.830322 -0.00317587 0)
(-0.817623 -0.00325053 0)
(-0.804627 -0.00332624 0)
(-0.791329 -0.00340338 0)
(-0.777723 -0.00348191 0)
(-0.763804 -0.00356212 0)
(-0.749564 -0.0036443 0)
(-0.734995 -0.00372891 0)
(-0.720087 -0.00381611 0)
(-0.704829 -0.0039059 0)
(-0.689212 -0.00399801 0)
(-0.673227 -0.00409235 0)
(-0.656867 -0.00418859 0)
(-0.640122 -0.0042868 0)
(-0.622983 -0.00438856 0)
(-0.605434 -0.00449483 0)
(-0.587457 -0.00460537 0)
(-0.569035 -0.00472083 0)
(-0.550145 -0.0048427 0)
(-0.530758 -0.00497333 0)
(-0.510831 -0.00511616 0)
(-0.490309 -0.00527591 0)
(-0.469111 -0.00545888 0)
(-0.447131 -0.00567305 0)
(-0.424226 -0.00592805 0)
(-0.400217 -0.00623402 0)
(-0.374886 -0.00659952 0)
(-0.347982 -0.00703304 0)
(-0.319226 -0.00754055 0)
(-0.288329 -0.00812127 0)
(-0.255031 -0.00876227 0)
(-0.219173 -0.00942406 0)
(-0.180858 -0.0100147 0)
(-0.140734 -0.0103477 0)
(-0.100567 -0.0100423 0)
(-0.0640063 -0.00851859 0)
(-0.0364239 -0.00548181 0)
(-0.022331 -0.0016702 0)
(-0.0250052 0.0030251 0)
(-0.0528886 0.0111074 0)
(-0.130248 0.0280469 0)
(-0.319833 0.06718 0)
(-0.900302 0.187024 0)
(-1.46284 -7.28898e-05 0)
(-1.46026 -0.000995504 0)
(-1.45863 -0.0015312 0)
(-1.45585 -0.00185815 0)
(-1.45281 -0.00208545 0)
(-1.44954 -0.00225865 0)
(-1.44615 -0.00239784 0)
(-1.44261 -0.00251699 0)
(-1.43897 -0.00262338 0)
(-1.43522 -0.00272246 0)
(-1.43138 -0.00281695 0)
(-1.42743 -0.00290877 0)
(-1.42339 -0.00299873 0)
(-1.41925 -0.00308761 0)
(-1.41502 -0.00317558 0)
(-1.41069 -0.00326304 0)
(-1.40626 -0.00334978 0)
(-1.40173 -0.00343615 0)
(-1.39711 -0.00352245 0)
(-1.39238 -0.00360705 0)
(-1.38757 -0.00369168 0)
(-1.38265 -0.00377838 0)
(-1.37765 -0.00386518 0)
(-1.37254 -0.00395233 0)
(-1.36734 -0.00404014 0)
(-1.36204 -0.00412943 0)
(-1.35665 -0.00421999 0)
(-1.35115 -0.00431242 0)
(-1.34556 -0.00440638 0)
(-1.33986 -0.00450239 0)
(-1.33406 -0.00460031 0)
(-1.32815 -0.00470088 0)
(-1.32214 -0.00480397 0)
(-1.31601 -0.00490987 0)
(-1.30978 -0.00501882 0)
(-1.30342 -0.00513136 0)
(-1.29695 -0.00524753 0)
(-1.29036 -0.00536786 0)
(-1.28364 -0.00549248 0)
(-1.2768 -0.00562195 0)
(-1.26982 -0.00575649 0)
(-1.26271 -0.00589653 0)
(-1.25546 -0.0060422 0)
(-1.24806 -0.00619383 0)
(-1.24051 -0.00635141 0)
(-1.2328 -0.00651508 0)
(-1.22493 -0.00668499 0)
(-1.21688 -0.00686108 0)
(-1.20865 -0.0070407 0)
(-1.20024 -0.00722194 0)
(-1.19165 -0.0074078 0)
(-1.18291 -0.00759812 0)
(-1.17402 -0.00778919 0)
(-1.16499 -0.00797781 0)
(-1.15581 -0.00816197 0)
(-1.14648 -0.00834368 0)
(-1.13699 -0.00852576 0)
(-1.12735 -0.00870952 0)
(-1.11756 -0.00889491 0)
(-1.10762 -0.00908211 0)
(-1.09754 -0.0092714 0)
(-1.0873 -0.00946257 0)
(-1.07693 -0.00965611 0)
(-1.06641 -0.00985296 0)
(-1.05576 -0.010054 0)
(-1.04498 -0.0102593 0)
(-1.03406 -0.0104692 0)
(-1.02302 -0.0106831 0)
(-1.01185 -0.010901 0)
(-1.00056 -0.0111223 0)
(-0.989146 -0.0113471 0)
(-0.977605 -0.0115803 0)
(-0.965931 -0.0118253 0)
(-0.954112 -0.0120819 0)
(-0.942136 -0.0123519 0)
(-0.929982 -0.0126399 0)
(-0.917629 -0.0129523 0)
(-0.905042 -0.0132982 0)
(-0.89218 -0.0136898 0)
(-0.878986 -0.014143 0)
(-0.865392 -0.0146772 0)
(-0.85131 -0.0153159 0)
(-0.836636 -0.0160846 0)
(-0.821242 -0.0170057 0)
(-0.804983 -0.0180997 0)
(-0.7877 -0.0193804 0)
(-0.769238 -0.0208429 0)
(-0.74947 -0.0224509 0)
(-0.72834 -0.024101 0)
(-0.70594 -0.0255618 0)
(-0.682623 -0.0263843 0)
(-0.659089 -0.0257245 0)
(-0.636528 -0.0222988 0)
(-0.617541 -0.0149576 0)
(-0.60891 -0.00373579 0)
(-0.619088 0.0115202 0)
(-0.660621 0.0372349 0)
(-0.754096 0.0865934 0)
(-0.940492 0.191744 0)
(-1.39509 0.494805 0)
(-1.61418 -0.000472242 0)
(-1.61061 -0.00195966 0)
(-1.60949 -0.00277782 0)
(-1.60694 -0.00326409 0)
(-1.60417 -0.00359325 0)
(-1.60123 -0.00383875 0)
(-1.5982 -0.00403412 0)
(-1.59506 -0.00420115 0)
(-1.59187 -0.00435069 0)
(-1.5886 -0.00449078 0)
(-1.58528 -0.00462524 0)
(-1.58188 -0.00475694 0)
(-1.57843 -0.0048867 0)
(-1.57491 -0.00501591 0)
(-1.57133 -0.00514449 0)
(-1.56768 -0.00527319 0)
(-1.56396 -0.00540164 0)
(-1.56017 -0.00553011 0)
(-1.55631 -0.00565938 0)
(-1.55236 -0.00578677 0)
(-1.54836 -0.00591289 0)
(-1.54427 -0.00604002 0)
(-1.54013 -0.00616632 0)
(-1.53592 -0.00629243 0)
(-1.53165 -0.00641916 0)
(-1.52732 -0.00654755 0)
(-1.52294 -0.00667754 0)
(-1.51849 -0.00680966 0)
(-1.51399 -0.00694349 0)
(-1.50942 -0.00707955 0)
(-1.5048 -0.00721777 0)
(-1.50012 -0.00735899 0)
(-1.49538 -0.00750327 0)
(-1.49059 -0.00765076 0)
(-1.48574 -0.00780181 0)
(-1.48084 -0.007957 0)
(-1.47588 -0.00811628 0)
(-1.47087 -0.00828023 0)
(-1.46581 -0.00844893 0)
(-1.4607 -0.00862288 0)
(-1.45554 -0.00880231 0)
(-1.45034 -0.00898783 0)
(-1.44509 -0.00917961 0)
(-1.4398 -0.00937811 0)
(-1.43448 -0.00958334 0)
(-1.42912 -0.00979541 0)
(-1.42373 -0.0100146 0)
(-1.41831 -0.0102402 0)
(-1.41287 -0.0104702 0)
(-1.40742 -0.0107015 0)
(-1.40197 -0.0109315 0)
(-1.3965 -0.011158 0)
(-1.39103 -0.0113812 0)
(-1.38559 -0.011604 0)
(-1.38015 -0.0118253 0)
(-1.37472 -0.0120438 0)
(-1.36929 -0.0122605 0)
(-1.36389 -0.0124762 0)
(-1.35852 -0.0126909 0)
(-1.35319 -0.0129044 0)
(-1.34791 -0.0131157 0)
(-1.34269 -0.0133242 0)
(-1.33756 -0.0135297 0)
(-1.33254 -0.0137334 0)
(-1.32763 -0.013936 0)
(-1.32286 -0.0141368 0)
(-1.31826 -0.0143356 0)
(-1.31384 -0.0145318 0)
(-1.30963 -0.0147251 0)
(-1.30565 -0.0149148 0)
(-1.30194 -0.0150998 0)
(-1.29852 -0.0152878 0)
(-1.29542 -0.0154857 0)
(-1.29265 -0.0156934 0)
(-1.29023 -0.0159139 0)
(-1.28818 -0.016154 0)
(-1.2865 -0.0164237 0)
(-1.2852 -0.0167369 0)
(-1.28426 -0.0171113 0)
(-1.28366 -0.0175696 0)
(-1.28338 -0.0181383 0)
(-1.28335 -0.0188491 0)
(-1.28351 -0.0197372 0)
(-1.28377 -0.0208356 0)
(-1.28404 -0.0221729 0)
(-1.28418 -0.0237657 0)
(-1.2841 -0.025603 0)
(-1.28369 -0.0276286 0)
(-1.28292 -0.0296984 0)
(-1.28183 -0.0315031 0)
(-1.2806 -0.0324779 0)
(-1.27954 -0.0316614 0)
(-1.27911 -0.0275872 0)
(-1.28033 -0.0183359 0)
(-1.28665 -0.00227649 0)
(-1.30055 0.0221277 0)
(-1.33362 0.0630341 0)
(-1.40038 0.138375 0)
(-1.5306 0.290264 0)
(-1.77999 0.67487 0)
(-1.7519 -0.000995367 0)
(-1.74797 -0.00280268 0)
(-1.74764 -0.00382299 0)
(-1.74574 -0.00443649 0)
(-1.74369 -0.00484327 0)
(-1.74151 -0.00513832 0)
(-1.73929 -0.00536831 0)
(-1.73701 -0.00556264 0)
(-1.73471 -0.0057351 0)
(-1.73238 -0.00589633 0)
(-1.73004 -0.00605078 0)
(-1.72767 -0.00620247 0)
(-1.7253 -0.0063518 0)
(-1.7229 -0.00650107 0)
(-1.7205 -0.00664966 0)
(-1.71807 -0.00679884 0)
(-1.71564 -0.00694812 0)
(-1.71318 -0.00709756 0)
(-1.71073 -0.00724739 0)
(-1.70824 -0.00739658 0)
(-1.70578 -0.0075441 0)
(-1.70328 -0.00769009 0)
(-1.70079 -0.00783399 0)
(-1.69828 -0.00797641 0)
(-1.69577 -0.00811876 0)
(-1.69326 -0.0082623 0)
(-1.69075 -0.00840723 0)
(-1.68824 -0.00855361 0)
(-1.68574 -0.00870097 0)
(-1.68324 -0.00884961 0)
(-1.68076 -0.00899953 0)
(-1.67829 -0.00915127 0)
(-1.67583 -0.00930508 0)
(-1.6734 -0.00946093 0)
(-1.67099 -0.00961911 0)
(-1.66862 -0.00977998 0)
(-1.66628 -0.00994342 0)
(-1.66398 -0.0101098 0)
(-1.66173 -0.0102791 0)
(-1.65952 -0.0104516 0)
(-1.65739 -0.0106271 0)
(-1.65531 -0.010806 0)
(-1.65332 -0.0109881 0)
(-1.65141 -0.0111736 0)
(-1.6496 -0.0113622 0)
(-1.6479 -0.0115537 0)
(-1.64633 -0.0117477 0)
(-1.64489 -0.0119427 0)
(-1.6436 -0.0121373 0)
(-1.64248 -0.0123317 0)
(-1.64152 -0.0125248 0)
(-1.64071 -0.0127126 0)
(-1.64006 -0.0128936 0)
(-1.63957 -0.0130716 0)
(-1.63925 -0.0132471 0)
(-1.63911 -0.013417 0)
(-1.63916 -0.0135801 0)
(-1.63942 -0.013736 0)
(-1.63989 -0.0138841 0)
(-1.64061 -0.0140237 0)
(-1.64158 -0.0141534 0)
(-1.64283 -0.0142717 0)
(-1.64437 -0.0143774 0)
(-1.64622 -0.0144721 0)
(-1.6484 -0.0145566 0)
(-1.65093 -0.0146297 0)
(-1.65382 -0.0146905 0)
(-1.6571 -0.0147385 0)
(-1.66077 -0.0147733 0)
(-1.66485 -0.0147952 0)
(-1.66936 -0.0147999 0)
(-1.67431 -0.0147988 0)
(-1.6797 -0.014806 0)
(-1.68551 -0.0148209 0)
(-1.69174 -0.0148485 0)
(-1.69836 -0.0148987 0)
(-1.70535 -0.0149855 0)
(-1.71267 -0.0151272 0)
(-1.72027 -0.0153469 0)
(-1.7281 -0.0156731 0)
(-1.73608 -0.0161386 0)
(-1.74415 -0.0167803 0)
(-1.75223 -0.0176388 0)
(-1.76022 -0.0187531 0)
(-1.76806 -0.0201547 0)
(-1.77566 -0.0218583 0)
(-1.78297 -0.0238453 0)
(-1.78996 -0.02604 0)
(-1.79665 -0.0282709 0)
(-1.80309 -0.0301935 0)
(-1.80936 -0.0312036 0)
(-1.81551 -0.0303269 0)
(-1.82149 -0.0260745 0)
(-1.82739 -0.0163084 0)
(-1.83528 0.000998495 0)
(-1.84279 0.029957 0)
(-1.8605 0.0794569 0)
(-1.89512 0.170051 0)
(-1.95574 0.34793 0)
(-2.04419 0.727345 0)
(-1.89313 -0.00146721 0)
(-1.88953 -0.00336293 0)
(-1.8901 -0.00447901 0)
(-1.8892 -0.00516399 0)
(-1.88832 -0.00561256 0)
(-1.88736 -0.00592713 0)
(-1.88645 -0.0061658 0)
(-1.88551 -0.00636185 0)
(-1.88464 -0.00653271 0)
(-1.88377 -0.00668985 0)
(-1.88298 -0.00683919 0)
(-1.88219 -0.0069846 0)
(-1.88147 -0.00712681 0)
(-1.88077 -0.00726803 0)
(-1.88015 -0.0074078 0)
(-1.87956 -0.00754685 0)
(-1.87904 -0.00768503 0)
(-1.87857 -0.00782198 0)
(-1.87818 -0.00795684 0)
(-1.87784 -0.00809028 0)
(-1.87759 -0.00822332 0)
(-1.8774 -0.00835491 0)
(-1.87729 -0.00848393 0)
(-1.87723 -0.00860979 0)
(-1.87726 -0.00873384 0)
(-1.87736 -0.00885803 0)
(-1.87754 -0.00898276 0)
(-1.87779 -0.00910741 0)
(-1.87814 -0.00923138 0)
(-1.87858 -0.00935462 0)
(-1.87911 -0.00947727 0)
(-1.87974 -0.00959945 0)
(-1.88047 -0.00972135 0)
(-1.88132 -0.00984317 0)
(-1.88228 -0.00996491 0)
(-1.88336 -0.0100866 0)
(-1.88456 -0.0102082 0)
(-1.8859 -0.0103298 0)
(-1.88737 -0.0104512 0)
(-1.88899 -0.0105724 0)
(-1.89076 -0.0106932 0)
(-1.89269 -0.0108135 0)
(-1.89478 -0.0109331 0)
(-1.89705 -0.0110516 0)
(-1.89948 -0.0111688 0)
(-1.90211 -0.0112844 0)
(-1.90492 -0.0113976 0)
(-1.90792 -0.0115069 0)
(-1.91112 -0.0116116 0)
(-1.91452 -0.0117138 0)
(-1.91813 -0.0118147 0)
(-1.92194 -0.0119115 0)
(-1.92597 -0.0119992 0)
(-1.93021 -0.0120793 0)
(-1.93468 -0.0121543 0)
(-1.93938 -0.012221 0)
(-1.94429 -0.0122774 0)
(-1.94944 -0.0123227 0)
(-1.95481 -0.0123562 0)
(-1.96041 -0.0123773 0)
(-1.96622 -0.0123851 0)
(-1.97226 -0.0123772 0)
(-1.97852 -0.0123522 0)
(-1.985 -0.0123121 0)
(-1.99169 -0.0122596 0)
(-1.99858 -0.0121933 0)
(-2.00567 -0.0121123 0)
(-2.01295 -0.0120159 0)
(-2.02042 -0.0119042 0)
(-2.02806 -0.0117788 0)
(-2.03587 -0.0116324 0)
(-2.04388 -0.0114739 0)
(-2.05208 -0.0113231 0)
(-2.06048 -0.0111838 0)
(-2.06907 -0.0110643 0)
(-2.07785 -0.0109772 0)
(-2.08678 -0.0109396 0)
(-2.09587 -0.0109726 0)
(-2.10507 -0.011103 0)
(-2.11436 -0.0113623 0)
(-2.12372 -0.0117866 0)
(-2.13312 -0.0124151 0)
(-2.14251 -0.0132899 0)
(-2.15185 -0.0144507 0)
(-2.16113 -0.0159267 0)
(-2.1703 -0.0177281 0)
(-2.17933 -0.0198306 0)
(-2.18822 -0.0221474 0)
(-2.19693 -0.0244914 0)
(-2.20545 -0.0265156 0)
(-2.21372 -0.027634 0)
(-2.22152 -0.0269299 0)
(-2.22836 -0.0230253 0)
(-2.23372 -0.0138888 0)
(-2.23879 0.00281922 0)
(-2.23899 0.0327357 0)
(-2.24054 0.0851356 0)
(-2.24279 0.180624 0)
(-2.23652 0.361744 0)
(-2.21271 0.691882 0)
(-2.04529 -0.00173034 0)
(-2.04258 -0.00350905 0)
(-2.04419 -0.00458296 0)
(-2.04466 -0.00525121 0)
(-2.04532 -0.00568269 0)
(-2.04601 -0.00597319 0)
(-2.04685 -0.00618513 0)
(-2.04774 -0.00635093 0)
(-2.04876 -0.00649054 0)
(-2.04984 -0.00661469 0)
(-2.05104 -0.00673054 0)
(-2.05231 -0.00684094 0)
(-2.05371 -0.0069476 0)
(-2.05518 -0.00705161 0)
(-2.05677 -0.00715345 0)
(-2.05845 -0.00725268 0)
(-2.06025 -0.00734946 0)
(-2.06214 -0.00744353 0)
(-2.06415 -0.00753384 0)
(-2.06626 -0.00762104 0)
(-2.0685 -0.00770751 0)
(-2.07084 -0.00779241 0)
(-2.07331 -0.00787479 0)
(-2.07589 -0.00795198 0)
(-2.07861 -0.00802447 0)
(-2.08145 -0.00809621 0)
(-2.08443 -0.00816764 0)
(-2.08753 -0.00823748 0)
(-2.09078 -0.0083052 0)
(-2.09416 -0.00837061 0)
(-2.09768 -0.00843394 0)
(-2.10134 -0.00849545 0)
(-2.10514 -0.00855525 0)
(-2.10907 -0.00861372 0)
(-2.11315 -0.00867094 0)
(-2.11737 -0.00872703 0)
(-2.12172 -0.00878187 0)
(-2.12621 -0.00883554 0)
(-2.13084 -0.00888808 0)
(-2.13559 -0.00893942 0)
(-2.14048 -0.00898941 0)
(-2.14549 -0.00903809 0)
(-2.15063 -0.00908529 0)
(-2.15588 -0.00913085 0)
(-2.16125 -0.00917462 0)
(-2.16673 -0.00921644 0)
(-2.17232 -0.00925561 0)
(-2.17801 -0.00929123 0)
(-2.18379 -0.00932315 0)
(-2.18967 -0.00935273 0)
(-2.19563 -0.00937984 0)
(-2.20168 -0.00940357 0)
(-2.2078 -0.00941861 0)
(-2.214 -0.00942351 0)
(-2.2203 -0.00942039 0)
(-2.22668 -0.00940798 0)
(-2.23315 -0.00938546 0)
(-2.23972 -0.00935275 0)
(-2.24636 -0.00930933 0)
(-2.2531 -0.00925472 0)
(-2.25991 -0.00918791 0)
(-2.2668 -0.00910658 0)
(-2.27376 -0.00900745 0)
(-2.28082 -0.00889298 0)
(-2.28795 -0.00876929 0)
(-2.29516 -0.00863346 0)
(-2.30246 -0.00848378 0)
(-2.30984 -0.0083194 0)
(-2.31731 -0.00814013 0)
(-2.32488 -0.00794653 0)
(-2.33253 -0.00773172 0)
(-2.34033 -0.00749886 0)
(-2.34822 -0.00727401 0)
(-2.3562 -0.00706166 0)
(-2.36428 -0.00687154 0)
(-2.37246 -0.00671766 0)
(-2.38073 -0.00661817 0)
(-2.3891 -0.00659586 0)
(-2.39756 -0.00667889 0)
(-2.4061 -0.00690044 0)
(-2.41471 -0.00729824 0)
(-2.42338 -0.00791161 0)
(-2.43209 -0.00878214 0)
(-2.44084 -0.00995141 0)
(-2.44961 -0.0114466 0)
(-2.45841 -0.0132749 0)
(-2.4672 -0.0154143 0)
(-2.47598 -0.017779 0)
(-2.48471 -0.0201841 0)
(-2.49329 -0.0223012 0)
(-2.50157 -0.0236032 0)
(-2.50914 -0.023278 0)
(-2.51522 -0.0201598 0)
(-2.51879 -0.0124745 0)
(-2.52035 0.00242692 0)
(-2.51315 0.030511 0)
(-2.49965 0.0803781 0)
(-2.4723 0.171321 0)
(-2.41022 0.3368 0)
(-2.31232 0.601384 0)
(-2.20414 -0.00169186 0)
(-2.20261 -0.00313396 0)
(-2.20531 -0.00402652 0)
(-2.20728 -0.0045832 0)
(-2.2095 -0.00493334 0)
(-2.21192 -0.00515578 0)
(-2.21451 -0.00530736 0)
(-2.21722 -0.00541599 0)
(-2.22007 -0.00550081 0)
(-2.22303 -0.00557133 0)
(-2.22612 -0.0056344 0)
(-2.22932 -0.00569207 0)
(-2.23263 -0.00574665 0)
(-2.23605 -0.00579823 0)
(-2.23958 -0.00584819 0)
(-2.24321 -0.00589507 0)
(-2.24695 -0.00593954 0)
(-2.25079 -0.00598117 0)
(-2.25473 -0.00601972 0)
(-2.25876 -0.00605531 0)
(-2.26289 -0.00608959 0)
(-2.26711 -0.00612149 0)
(-2.27142 -0.00615179 0)
(-2.27581 -0.0061766 0)
(-2.28031 -0.00619438 0)
(-2.28489 -0.00620845 0)
(-2.28958 -0.00622058 0)
(-2.29436 -0.00623056 0)
(-2.29926 -0.00623865 0)
(-2.30425 -0.0062448 0)
(-2.30934 -0.00624938 0)
(-2.31452 -0.00625282 0)
(-2.3198 -0.00625558 0)
(-2.32516 -0.0062582 0)
(-2.33061 -0.00626088 0)
(-2.33612 -0.00626393 0)
(-2.34172 -0.00626749 0)
(-2.34737 -0.00627171 0)
(-2.35309 -0.00627662 0)
(-2.35886 -0.0062823 0)
(-2.36469 -0.00628878 0)
(-2.37055 -0.00629603 0)
(-2.37646 -0.00630395 0)
(-2.3824 -0.00631237 0)
(-2.38837 -0.0063212 0)
(-2.39437 -0.00633011 0)
(-2.40039 -0.00633844 0)
(-2.40643 -0.00634561 0)
(-2.41248 -0.00635132 0)
(-2.41854 -0.00635619 0)
(-2.42462 -0.00635944 0)
(-2.4307 -0.00635941 0)
(-2.43678 -0.00635309 0)
(-2.4429 -0.00633872 0)
(-2.44901 -0.00631509 0)
(-2.4551 -0.0062812 0)
(-2.46119 -0.00623755 0)
(-2.46728 -0.00618431 0)
(-2.47336 -0.00612078 0)
(-2.47944 -0.00604618 0)
(-2.48552 -0.00595932 0)
(-2.49161 -0.00585788 0)
(-2.49771 -0.00573562 0)
(-2.50383 -0.00559289 0)
(-2.50997 -0.00544397 0)
(-2.51614 -0.00528173 0)
(-2.52234 -0.00510332 0)
(-2.52858 -0.00490769 0)
(-2.53485 -0.00469461 0)
(-2.54118 -0.00446332 0)
(-2.54754 -0.00421086 0)
(-2.55399 -0.00392944 0)
(-2.5605 -0.00366793 0)
(-2.56705 -0.00341903 0)
(-2.57366 -0.0031892 0)
(-2.58034 -0.00299266 0)
(-2.5871 -0.00284827 0)
(-2.59395 -0.00277948 0)
(-2.60089 -0.00281521 0)
(-2.60795 -0.00298983 0)
(-2.61513 -0.00334222 0)
(-2.62243 -0.00391098 0)
(-2.62987 -0.00473421 0)
(-2.63747 -0.00585886 0)
(-2.64521 -0.00731085 0)
(-2.65312 -0.0090947 0)
(-2.66119 -0.0111973 0)
(-2.66939 -0.0135397 0)
(-2.67765 -0.0159548 0)
(-2.68585 -0.0181561 0)
(-2.69369 -0.0196969 0)
(-2.70064 -0.0199057 0)
(-2.70578 -0.017849 0)
(-2.70751 -0.012174 0)
(-2.70585 -0.000152887 0)
(-2.69233 0.0236244 0)
(-2.66554 0.0664397 0)
(-2.61319 0.144655 0)
(-2.50852 0.281605 0)
(-2.3644 0.478406 0)
(-2.35366 -0.0013453 0)
(-2.35314 -0.00228385 0)
(-2.35651 -0.00289963 0)
(-2.35947 -0.00328128 0)
(-2.36265 -0.00350947 0)
(-2.36616 -0.00364116 0)
(-2.36976 -0.00371904 0)
(-2.37354 -0.00376421 0)
(-2.3774 -0.00379159 0)
(-2.38139 -0.00380889 0)
(-2.38544 -0.00382125 0)
(-2.3896 -0.00382997 0)
(-2.39381 -0.00383741 0)
(-2.39813 -0.00384298 0)
(-2.4025 -0.00384837 0)
(-2.40696 -0.00385144 0)
(-2.41148 -0.00385371 0)
(-2.41607 -0.00385393 0)
(-2.42071 -0.00385283 0)
(-2.42543 -0.0038499 0)
(-2.43019 -0.00384664 0)
(-2.43502 -0.00384157 0)
(-2.43989 -0.00383504 0)
(-2.44481 -0.00382453 0)
(-2.44981 -0.00380992 0)
(-2.45484 -0.00379101 0)
(-2.4599 -0.00376976 0)
(-2.46498 -0.00374737 0)
(-2.47009 -0.00372496 0)
(-2.47522 -0.00370234 0)
(-2.48036 -0.00368002 0)
(-2.4855 -0.00365833 0)
(-2.49066 -0.0036381 0)
(-2.49582 -0.00362006 0)
(-2.50098 -0.00360421 0)
(-2.50612 -0.00359071 0)
(-2.51127 -0.00358005 0)
(-2.51639 -0.00357226 0)
(-2.52151 -0.00356708 0)
(-2.5266 -0.00356455 0)
(-2.53168 -0.00356465 0)
(-2.53673 -0.00356718 0)
(-2.54176 -0.00357189 0)
(-2.54677 -0.00357842 0)
(-2.55176 -0.00358651 0)
(-2.55671 -0.00359559 0)
(-2.56165 -0.00360502 0)
(-2.56656 -0.00361412 0)
(-2.57145 -0.00362235 0)
(-2.57632 -0.00362979 0)
(-2.58116 -0.00363535 0)
(-2.58599 -0.00363607 0)
(-2.5908 -0.00363136 0)
(-2.5956 -0.00362256 0)
(-2.60037 -0.00360671 0)
(-2.60512 -0.0035803 0)
(-2.60984 -0.00354285 0)
(-2.61454 -0.00349417 0)
(-2.61923 -0.00343346 0)
(-2.62392 -0.00335967 0)
(-2.6286 -0.00327153 0)
(-2.63329 -0.00316729 0)
(-2.63799 -0.00303905 0)
(-2.64272 -0.00287637 0)
(-2.64748 -0.00271491 0)
(-2.65228 -0.00253718 0)
(-2.65711 -0.00233903 0)
(-2.662 -0.00211957 0)
(-2.66695 -0.00187928 0)
(-2.67197 -0.00161727 0)
(-2.67705 -0.00134511 0)
(-2.68222 -0.00100022 0)
(-2.68751 -0.000703147 0)
(-2.69291 -0.000417511 0)
(-2.69841 -0.000144112 0)
(-2.70404 0.000102336 0)
(-2.70979 0.000302615 0)
(-2.7157 0.000433156 0)
(-2.72176 0.000465289 0)
(-2.728 0.000364915 0)
(-2.73443 9.37048e-05 0)
(-2.74107 -0.000387218 0)
(-2.74797 -0.00111521 0)
(-2.75513 -0.00213595 0)
(-2.76249 -0.00347814 0)
(-2.77017 -0.00515262 0)
(-2.77809 -0.00715926 0)
(-2.78621 -0.00942948 0)
(-2.79444 -0.011825 0)
(-2.80257 -0.0141178 0)
(-2.81026 -0.0159546 0)
(-2.81685 -0.016832 0)
(-2.82131 -0.016047 0)
(-2.82181 -0.0127227 0)
(-2.81702 -0.00451091 0)
(-2.7996 0.0128218 0)
(-2.76213 0.0450062 0)
(-2.69068 0.104003 0)
(-2.55615 0.204607 0)
(-2.38524 0.337612 0)
(-2.47616 -0.000723316 0)
(-2.47655 -0.00113651 0)
(-2.48011 -0.00144797 0)
(-2.48352 -0.00163566 0)
(-2.48703 -0.00173643 0)
(-2.49093 -0.00178366 0)
(-2.49478 -0.00180098 0)
(-2.49886 -0.00180077 0)
(-2.50285 -0.00179172 0)
(-2.50701 -0.00177866 0)
(-2.51107 -0.00176435 0)
(-2.51526 -0.00174915 0)
(-2.51936 -0.00173467 0)
(-2.52356 -0.00172025 0)
(-2.52768 -0.00170678 0)
(-2.53187 -0.0016925 0)
(-2.536 -0.00167884 0)
(-2.54018 -0.00166438 0)
(-2.5443 -0.00164997 0)
(-2.54846 -0.00163502 0)
(-2.55257 -0.00162065 0)
(-2.5567 -0.00160524 0)
(-2.56079 -0.00158798 0)
(-2.56487 -0.00156852 0)
(-2.56892 -0.00155029 0)
(-2.57296 -0.00153218 0)
(-2.57694 -0.00151429 0)
(-2.58089 -0.0014971 0)
(-2.58478 -0.00148152 0)
(-2.58863 -0.00146672 0)
(-2.59243 -0.00145288 0)
(-2.59618 -0.00144048 0)
(-2.59989 -0.00143042 0)
(-2.60355 -0.00142337 0)
(-2.60717 -0.00141919 0)
(-2.61075 -0.00141767 0)
(-2.61429 -0.00141943 0)
(-2.61779 -0.00142429 0)
(-2.62125 -0.00143168 0)
(-2.62469 -0.00144157 0)
(-2.62809 -0.00145379 0)
(-2.63147 -0.00146804 0)
(-2.63482 -0.00148388 0)
(-2.63816 -0.00150086 0)
(-2.64148 -0.00151853 0)
(-2.64478 -0.00153619 0)
(-2.64808 -0.00155322 0)
(-2.65137 -0.00156885 0)
(-2.65467 -0.00158256 0)
(-2.65796 -0.00159381 0)
(-2.66126 -0.00160143 0)
(-2.66458 -0.00160302 0)
(-2.66791 -0.00159876 0)
(-2.67126 -0.00158982 0)
(-2.67463 -0.00157296 0)
(-2.67804 -0.0015442 0)
(-2.68148 -0.00150225 0)
(-2.68496 -0.00144661 0)
(-2.68849 -0.00137637 0)
(-2.69207 -0.00129033 0)
(-2.6957 -0.00118744 0)
(-2.69939 -0.00106634 0)
(-2.70315 -0.000926643 0)
(-2.70697 -0.000715706 0)
(-2.7109 -0.000531264 0)
(-2.71491 -0.000324518 0)
(-2.719 -9.18209e-05 0)
(-2.72319 0.000166774 0)
(-2.72749 0.000450741 0)
(-2.73189 0.000757139 0)
(-2.73644 0.0010792 0)
(-2.74108 0.00148236 0)
(-2.74585 0.00184432 0)
(-2.7508 0.00219912 0)
(-2.75592 0.00254681 0)
(-2.76124 0.00287316 0)
(-2.76675 0.00315922 0)
(-2.77247 0.00338169 0)
(-2.77842 0.00351251 0)
(-2.7846 0.00351851 0)
(-2.79103 0.00336271 0)
(-2.79772 0.00300437 0)
(-2.8047 0.00240091 0)
(-2.81197 0.00151823 0)
(-2.81947 0.000323852 0)
(-2.82737 -0.00120814 0)
(-2.83551 -0.00308105 0)
(-2.84386 -0.00524962 0)
(-2.85238 -0.00762167 0)
(-2.86079 -0.0100288 0)
(-2.86868 -0.0122202 0)
(-2.87535 -0.0138701 0)
(-2.87965 -0.014542 0)
(-2.87977 -0.0137167 0)
(-2.87297 -0.00994701 0)
(-2.85347 -0.000563432 0)
(-2.81046 0.0182078 0)
(-2.72633 0.0534229 0)
(-2.57373 0.113183 0)
(-2.38945 0.188044 0)
(-2.55083 0.000117565 0)
(-2.55181 0.000103766 0)
(-2.55507 7.37505e-05 0)
(-2.55835 6.19327e-05 0)
(-2.5616 6.45467e-05 0)
(-2.56524 7.39021e-05 0)
(-2.56868 8.53295e-05 0)
(-2.57236 9.73123e-05 0)
(-2.57579 0.000107891 0)
(-2.57939 0.000116241 0)
(-2.58274 0.000121938 0)
(-2.58622 0.000125877 0)
(-2.58947 0.000127815 0)
(-2.59282 0.000128136 0)
(-2.59595 0.000127441 0)
(-2.59917 0.000126378 0)
(-2.6022 0.000124748 0)
(-2.60529 0.000123236 0)
(-2.60822 0.000121749 0)
(-2.61118 0.000120385 0)
(-2.61401 0.000118876 0)
(-2.61685 0.000118257 1.3901e-42)
(-2.61959 0.000119592 0)
(-2.62233 0.000121923 0)
(-2.62499 0.000122559 0)
(-2.62763 0.000121471 0)
(-2.63021 0.000119334 0)
(-2.63278 0.000116078 0)
(-2.63529 0.000111386 0)
(-2.63779 0.000106883 0)
(-2.64025 0.000103283 0)
(-2.64269 9.92337e-05 0)
(-2.64512 9.36678e-05 0)
(-2.64752 8.63679e-05 0)
(-2.64992 7.73583e-05 0)
(-2.65231 6.67508e-05 0)
(-2.65469 5.42735e-05 0)
(-2.65707 4.02074e-05 0)
(-2.65945 2.51089e-05 0)
(-2.66183 9.05139e-06 0)
(-2.66423 -7.76242e-06 0)
(-2.66663 -2.49565e-05 0)
(-2.66905 -4.2068e-05 0)
(-2.67149 -5.86271e-05 0)
(-2.67395 -7.41107e-05 0)
(-2.67643 -8.78055e-05 0)
(-2.67895 -9.91179e-05 0)
(-2.68149 -0.000107295 0)
(-2.68406 -0.000111883 0)
(-2.68668 -0.0001119 0)
(-2.68933 -0.000106207 0)
(-2.69203 -9.33185e-05 0)
(-2.69478 -7.34396e-05 0)
(-2.69757 -4.62707e-05 0)
(-2.70042 -8.10771e-06 0)
(-2.70333 4.42939e-05 0)
(-2.7063 0.00011202 0)
(-2.70933 0.000195379 0)
(-2.71244 0.000295378 0)
(-2.71562 0.000413487 0)
(-2.71887 0.000550928 0)
(-2.72221 0.000707154 0)
(-2.72566 0.000886438 0)
(-2.72916 0.00114054 0)
(-2.73276 0.00137074 0)
(-2.73646 0.00162609 0)
(-2.74028 0.0019108 0)
(-2.74423 0.00222508 0)
(-2.74829 0.00256871 0)
(-2.7525 0.00293734 0)
(-2.75685 0.00334037 0)
(-2.76134 0.00379019 0)
(-2.76599 0.00423611 0)
(-2.77081 0.00468253 0)
(-2.77582 0.00512549 0)
(-2.78104 0.00555216 0)
(-2.78647 0.0059446 0)
(-2.79213 0.00628018 0)
(-2.79803 0.00653148 0)
(-2.8042 0.00666613 0)
(-2.81066 0.00664765 0)
(-2.81741 0.00643437 0)
(-2.8245 0.00598194 7.03174e-41)
(-2.83193 0.00525882 0)
(-2.8397 0.00422429 0)
(-2.84786 0.00284469 0)
(-2.85625 0.00111747 0)
(-2.86489 -0.000951017 -1.11792e-41)
(-2.87362 -0.00330286 0)
(-2.88214 -0.00583435 0)
(-2.89019 -0.008416 0)
(-2.89698 -0.0108944 0)
(-2.90133 -0.0131138 0)
(-2.90139 -0.0148925 -8.75303e-41)
(-2.89397 -0.0157806 0)
(-2.87322 -0.0149868 0)
(-2.82863 -0.0113124 -1.32976e-40)
(-2.73985 -0.00256389 0)
(-2.57993 0.0136299 0)
(-2.39109 0.0343734 0)
(-2.54229 0.00102635 0)
(-2.54314 0.00131752 0)
(-2.54636 0.00155023 0)
(-2.54958 0.00169937 0)
(-2.55279 0.00179028 0)
(-2.55638 0.00184172 0)
(-2.55981 0.00186688 0)
(-2.56347 0.00187535 0)
(-2.56692 0.00187224 0)
(-2.57053 0.00186097 0)
(-2.57393 0.00184344 0)
(-2.57746 0.00182162 0)
(-2.58078 0.00179714 0)
(-2.58421 0.00177005 0)
(-2.58745 0.00174225 0)
(-2.59076 0.0017135 0)
(-2.59392 0.00168507 0)
(-2.59712 0.00165666 0)
(-2.60019 0.00162915 0)
(-2.60328 0.00160208 0)
(-2.60626 0.00157617 0)
(-2.60926 0.00155148 1.82375e-41)
(-2.61216 0.00152957 0)
(-2.61505 0.00150864 0)
(-2.61787 0.00148822 0)
(-2.62068 0.00146737 0)
(-2.62343 0.00144682 0)
(-2.62615 0.00142582 0)
(-2.62883 0.00140369 0)
(-2.63149 0.00138338 0)
(-2.6341 0.00136716 0)
(-2.6367 0.00135199 0)
(-2.63927 0.00133645 0)
(-2.64181 0.0013209 0)
(-2.64434 0.00130525 0)
(-2.64686 0.00128928 0)
(-2.64937 0.00127341 0)
(-2.65186 0.00125786 0)
(-2.65435 0.00124276 0)
(-2.65684 0.00122834 0)
(-2.65934 0.0012149 0)
(-2.66183 0.0012028 0)
(-2.66434 0.00119245 0)
(-2.66686 0.00118432 0)
(-2.6694 0.0011789 0)
(-2.67195 0.00117694 0)
(-2.67453 0.001179 0)
(-2.67713 0.00118579 0)
(-2.67977 0.00119788 0)
(-2.68243 0.00121628 0)
(-2.68513 0.00124199 0)
(-2.68787 0.00127611 0)
(-2.69065 0.00131869 0)
(-2.69348 0.00137019 0)
(-2.69636 0.00143501 0)
(-2.69929 0.00151687 0)
(-2.70227 0.00161615 0)
(-2.70533 0.0017326 0)
(-2.70844 0.00186735 0)
(-2.71163 0.00202225 0)
(-2.7149 0.00219878 0)
(-2.71824 0.00239664 0)
(-2.72167 0.00262946 0)
(-2.72518 0.00290665 0)
(-2.72877 0.00319159 0)
(-2.73247 0.00350211 0)
(-2.73627 0.00384364 0)
(-2.74019 0.00421782 0)
(-2.74423 0.00462462 0)
(-2.7484 0.00506342 0)
(-2.75271 0.00554073 0)
(-2.75715 0.00605509 0)
(-2.76175 0.00658362 0)
(-2.76651 0.00712192 0)
(-2.77146 0.00766264 0)
(-2.77661 0.00819334 0)
(-2.78198 0.00869706 0)
(-2.78758 0.0091522 0)
(-2.79343 0.00953226 0)
(-2.79956 0.009806 0)
(-2.80597 0.00993746 0)
(-2.81272 0.00988581 0)
(-2.8198 0.00960855 1.12948e-40)
(-2.82726 0.00906637 0)
(-2.83509 0.00821032 0)
(-2.84331 0.00700337 0)
(-2.85186 0.0054209 0)
(-2.86072 0.00343593 4.03892e-41)
(-2.86958 0.00107361 0)
(-2.87827 -0.0016134 0)
(-2.88617 -0.00459556 0)
(-2.89292 -0.00791478 0)
(-2.89729 -0.0116878 0)
(-2.89744 -0.0161277 -9.47901e-41)
(-2.89018 -0.0217092 0)
(-2.86972 -0.0294425 0)
(-2.82553 -0.0410971 -4.83094e-40)
(-2.73882 -0.0595651 0)
(-2.58094 -0.0878162 0)
(-2.39419 -0.120135 0)
(-2.45716 0.00178912 0)
(-2.45716 0.00247464 0)
(-2.4605 0.00297801 0)
(-2.46358 0.00330022 0)
(-2.46677 0.00349658 0)
(-2.47033 0.00360995 0)
(-2.47387 0.00367159 0)
(-2.47764 0.00369967 0)
(-2.48137 0.00370716 0)
(-2.48525 0.00370048 0)
(-2.48908 0.00368412 0)
(-2.49304 0.00366057 0)
(-2.49697 0.00363319 0)
(-2.50099 0.00360193 0)
(-2.50498 0.00356916 0)
(-2.50905 0.00353429 0)
(-2.5131 0.00349953 0)
(-2.51721 0.00346385 0)
(-2.5213 0.00342869 0)
(-2.52545 0.00339328 0)
(-2.52957 0.00335887 0)
(-2.53373 0.00332483 0)
(-2.53788 0.00329311 0)
(-2.54205 0.00326185 0)
(-2.54621 0.00323135 0)
(-2.55038 0.00320029 0)
(-2.55453 0.00316954 0)
(-2.55869 0.00313796 0)
(-2.56283 0.00310439 0)
(-2.56696 0.00307161 0)
(-2.57108 0.00304177 0)
(-2.57516 0.00301139 0)
(-2.5792 0.00298008 0)
(-2.5832 0.00294916 0)
(-2.58716 0.00291878 0)
(-2.59108 0.00288891 0)
(-2.59495 0.00286038 0)
(-2.59879 0.00283332 0)
(-2.60258 0.00280765 0)
(-2.60634 0.00278392 0)
(-2.61005 0.00276261 0)
(-2.61374 0.00274404 0)
(-2.61739 0.00272872 0)
(-2.62102 0.00271708 0)
(-2.62461 0.00270968 0)
(-2.62819 0.00270726 0)
(-2.63174 0.00271051 0)
(-2.63527 0.00272007 0)
(-2.63879 0.0027367 0)
(-2.6423 0.00276135 0)
(-2.6458 0.00279499 0)
(-2.64929 0.00283843 0)
(-2.65279 0.00289216 0)
(-2.65629 0.00295591 0)
(-2.65979 0.00303486 0)
(-2.6633 0.00313489 0)
(-2.66683 0.00325493 0)
(-2.67038 0.0033937 0)
(-2.67396 0.00355279 0)
(-2.67758 0.00373415 0)
(-2.68123 0.00393952 0)
(-2.68492 0.00417164 0)
(-2.68866 0.00443957 0)
(-2.69245 0.00474319 0)
(-2.6963 0.0050687 0)
(-2.7002 0.00542353 0)
(-2.70419 0.00581207 0)
(-2.70825 0.00623655 0)
(-2.7124 0.00669767 0)
(-2.71665 0.00719642 0)
(-2.721 0.00773542 0)
(-2.72547 0.00831143 0)
(-2.73005 0.00891378 0)
(-2.73478 0.00953544 0)
(-2.73967 0.0101667 0)
(-2.74473 0.0107953 0)
(-2.74999 0.0114055 0)
(-2.75546 0.011977 0)
(-2.76116 0.0124843 0)
(-2.76713 0.0128976 0)
(-2.77338 0.0131817 0)
(-2.77995 0.013297 0)
(-2.78687 0.0132008 0)
(-2.79416 0.0128479 0)
(-2.80184 0.0121875 0)
(-2.80992 0.0111739 0)
(-2.81837 0.00975307 0)
(-2.82711 0.00787038 0)